LAMMPS data file via write_data, version 22 Aug 2018, timestep = 50

1566 atoms
6 atom types
1683 bonds
8 bond types
2700 angles
15 angle types
4068 dihedrals
22 dihedral types
840 impropers
8 improper types

0.0000000000000000e+00 3.0297999999999998e+01 xlo xhi
0.0000000000000000e+00 3.0297999999999998e+01 ylo yhi
0.0000000000000000e+00 3.0297999999999998e+01 zlo zhi

Masses

1 14.0067
2 1.00797
3 12.0112
4 15.9994
5 1.00797
6 12.0112

Pair Coeffs # lj/class2/coul/long

1 0.065 4.07
2 0.02 2.995
3 0.054 4.01
4 0.24 3.535
5 0.013 1.098
6 0.054 4.01

Bond Coeffs # class2

1 1.42 400.395 -835.195 1313.01
2 1.53 299.67 -501.77 679.81
3 1.53 299.67 -501.77 679.81
4 1.53 299.67 -501.77 679.81
5 1.101 345 -691.89 844.6
6 1.457 365.805 -699.637 998.484
7 1.006 466.74 -1073.6 1251.11
8 1.42 400.395 -835.195 1313.01

Angle Coeffs # class2

1 111.27 54.5381 -8.3642 -13.0838
2 112.67 39.516 -7.443 -9.5583
3 112.67 39.516 -7.443 -9.5583
4 112.67 39.516 -7.443 -9.5583
5 112.67 39.516 -7.443 -9.5583
6 110.77 41.453 -10.604 5.129
7 110.77 41.453 -10.604 5.129
8 111.91 60.7147 -13.3366 -13.0785
9 109.5 70 0 0
10 111.91 60.7147 -13.3366 -13.0785
11 112.67 39.516 -7.443 -9.5583
12 108.728 58.5446 -10.8088 -12.4006
13 111.27 54.5381 -8.3642 -13.0838
14 112.444 47.2337 -10.6612 -10.2062
15 110.954 50.8652 -4.4522 -10.0298

BondBond Coeffs

1 11.4318 1.53 1.42
2 0 1.53 1.53
3 0 1.53 1.53
4 0 1.53 1.53
5 0 1.53 1.53
6 3.3872 1.53 1.101
7 3.3872 1.53 1.101
8 4.6217 1.53 1.457
9 0 1.42 1.457
10 4.6217 1.53 1.457
11 0 1.53 1.53
12 23.1979 1.101 1.42
13 11.4318 1.53 1.42
14 -2.1113 1.457 1.457
15 -6.4168 1.457 1.006

BondAngle Coeffs

1 2.6868 20.4033 1.53 1.42
2 8.016 8.016 1.53 1.53
3 8.016 8.016 1.53 1.53
4 8.016 8.016 1.53 1.53
5 8.016 8.016 1.53 1.53
6 20.754 11.421 1.53 1.101
7 20.754 11.421 1.53 1.101
8 6.0876 16.5702 1.53 1.457
9 0 0 1.42 1.457
10 6.0876 16.5702 1.53 1.457
11 8.016 8.016 1.53 1.53
12 4.6189 55.327 1.101 1.42
13 2.6868 20.4033 1.53 1.42
14 -7.2229 -7.2229 1.457 1.457
15 31.8096 20.5799 1.457 1.006

Dihedral Coeffs # class2

1 0.7137 0 0.266 0 -0.2545 0
2 0 0 0.0514 0 -0.143 0
3 0 0 0.0514 0 -0.143 0
4 0 0 0.0316 0 -0.1681 0
5 0 0 0.0514 0 -0.143 0
6 0 0 0.0316 0 -0.1681 0
7 0 0 0.0514 0 -0.143 0
8 0 0 0.0316 0 -0.1681 0
9 -0.1432 0 0.0617 0 -0.1083 0
10 0.1764 0 0.1766 0 -0.5206 0
11 -0.1406 0 0.4168 0 0.015 0
12 -1.1506 0 -0.6344 0 -0.1845 0
13 0 0 0 0 0.05 180
14 0 0 0 0 0.05 180
15 -0.1406 0 0.4168 0 0.015 0
16 -1.1506 0 -0.6344 0 -0.1845 0
17 0.1764 0 0.1766 0 -0.5206 0
18 -0.2428 0 0.4065 0 -0.3079 0
19 0 0 0.0514 0 -0.143 0
20 0 0 0.0316 0 -0.1681 0
21 0 0 0.0514 0 -0.143 0
22 0.7137 0 0.266 0 -0.2545 0

AngleAngleTorsion Coeffs

1 0 112.67 111.27
2 0 112.67 112.67
3 0 112.67 112.67
4 0 112.67 110.77
5 0 112.67 112.67
6 0 112.67 110.77
7 0 112.67 112.67
8 0 112.67 110.77
9 0 110.77 110.77
10 0 112.67 111.91
11 0 111.91 112.444
12 0 111.91 110.954
13 0 109.5 112.444
14 0 109.5 110.954
15 0 111.91 112.444
16 0 111.91 110.954
17 0 112.67 111.91
18 0 110.77 111.91
19 0 112.67 112.67
20 0 112.67 110.77
21 0 112.67 112.67
22 0 112.67 111.27

EndBondTorsion Coeffs

1 -0.319 0.4411 -0.7174 1.1538 0.8409 -0.9138 1.53 1.42
2 -0.0732 0 0 -0.0732 0 0 1.53 1.53
3 -0.0732 0 0 -0.0732 0 0 1.53 1.53
4 0.2486 0.2422 -0.0925 0.0814 0.0591 0.2219 1.53 1.101
5 -0.0732 0 0 -0.0732 0 0 1.53 1.53
6 0.2486 0.2422 -0.0925 0.0814 0.0591 0.2219 1.53 1.101
7 -0.0732 0 0 -0.0732 0 0 1.53 1.53
8 0.2486 0.2422 -0.0925 0.0814 0.0591 0.2219 1.53 1.101
9 0.213 0.312 0.0777 0.213 0.312 0.0777 1.101 1.101
10 0.1032 0.5896 -0.4836 0.0579 -0.0043 -0.1906 1.53 1.457
11 0.0997 -0.0046 -0.2657 -0.0128 -0.0495 -0.1079 1.53 1.457
12 -0.9466 0.9356 -0.5542 0.057 0.0625 0.4112 1.53 1.006
13 0 0 0 0 0 0 1.42 1.457
14 0 0 0 0 0 0 1.42 1.006
15 0.0997 -0.0046 -0.2657 -0.0128 -0.0495 -0.1079 1.53 1.457
16 -0.9466 0.9356 -0.5542 0.057 0.0625 0.4112 1.53 1.006
17 0.1032 0.5896 -0.4836 0.0579 -0.0043 -0.1906 1.53 1.457
18 0.196 0.7056 0.112 0.1022 0.209 0.6433 1.101 1.457
19 -0.0732 0 0 -0.0732 0 0 1.53 1.53
20 0.2486 0.2422 -0.0925 0.0814 0.0591 0.2219 1.53 1.101
21 -0.0732 0 0 -0.0732 0 0 1.53 1.53
22 -0.319 0.4411 -0.7174 1.1538 0.8409 -0.9138 1.53 1.42

MiddleBondTorsion Coeffs

1 -21.8842 -7.6764 -0.6868 1.53
2 -17.787 -7.1877 0 1.53
3 -17.787 -7.1877 0 1.53
4 -14.879 -3.6581 -0.3138 1.53
5 -17.787 -7.1877 0 1.53
6 -14.879 -3.6581 -0.3138 1.53
7 -17.787 -7.1877 0 1.53
8 -14.879 -3.6581 -0.3138 1.53
9 -14.261 -0.5322 -0.4864 1.53
10 -15.4174 -7.3055 -1.0749 1.53
11 -8.0036 -7.7321 -3.064 1.457
12 -2.2208 0.5479 -0.3527 1.457
13 0 0 0 1.457
14 0 0 0 1.457
15 -8.0036 -7.7321 -3.064 1.457
16 -2.2208 0.5479 -0.3527 1.457
17 -15.4174 -7.3055 -1.0749 1.53
18 -10.4959 -0.7647 -0.0545 1.53
19 -17.787 -7.1877 0 1.53
20 -14.879 -3.6581 -0.3138 1.53
21 -17.787 -7.1877 0 1.53
22 -21.8842 -7.6764 -0.6868 1.53

BondBond13 Coeffs

1 0 1.53 1.42
2 0 1.53 1.53
3 0 1.53 1.53
4 0 1.53 1.101
5 0 1.53 1.53
6 0 1.53 1.101
7 0 1.53 1.53
8 0 1.53 1.101
9 0 1.101 1.101
10 0 1.53 1.457
11 0 1.53 1.457
12 0 1.53 1.006
13 0 1.42 1.457
14 0 1.42 1.006
15 0 1.53 1.457
16 0 1.53 1.006
17 0 1.53 1.457
18 0 1.101 1.457
19 0 1.53 1.53
20 0 1.53 1.101
21 0 1.53 1.53
22 0 1.53 1.42

AngleTorsion Coeffs

1 0.5623 -0.3041 -0.4015 0.9672 -0.7566 -1.2331 112.67 111.27
2 0.3886 -0.3139 0.1389 0.3886 -0.3139 0.1389 112.67 112.67
3 0.3886 -0.3139 0.1389 0.3886 -0.3139 0.1389 112.67 112.67
4 -0.2454 0 -0.1136 0.3113 0.4516 -0.1988 112.67 110.77
5 0.3886 -0.3139 0.1389 0.3886 -0.3139 0.1389 112.67 112.67
6 -0.2454 0 -0.1136 0.3113 0.4516 -0.1988 112.67 110.77
7 0.3886 -0.3139 0.1389 0.3886 -0.3139 0.1389 112.67 112.67
8 -0.2454 0 -0.1136 0.3113 0.4516 -0.1988 112.67 110.77
9 -0.8085 0.5569 -0.2466 -0.8085 0.5569 -0.2466 110.77 110.77
10 -1.9225 -1.345 0.221 2.0125 0.944 -2.7612 112.67 111.91
11 -2.7883 1.5193 1.4796 1.2031 1.3645 -0.7071 111.91 112.444
12 -3.343 4.4558 -0.0346 0.2873 -0.8072 -0.096 111.91 110.954
13 0 0 0 0 0 0 109.5 112.444
14 0 0 0 0 0 0 109.5 110.954
15 -2.7883 1.5193 1.4796 1.2031 1.3645 -0.7071 111.91 112.444
16 -3.343 4.4558 -0.0346 0.2873 -0.8072 -0.096 111.91 110.954
17 -1.9225 -1.345 0.221 2.0125 0.944 -2.7612 112.67 111.91
18 0.5111 1.6328 -1.0155 -1.1075 0.282 0.8318 110.77 111.91
19 0.3886 -0.3139 0.1389 0.3886 -0.3139 0.1389 112.67 112.67
20 -0.2454 0 -0.1136 0.3113 0.4516 -0.1988 112.67 110.77
21 0.3886 -0.3139 0.1389 0.3886 -0.3139 0.1389 112.67 112.67
22 0.5623 -0.3041 -0.4015 0.9672 -0.7566 -1.2331 112.67 111.27

Improper Coeffs # class2

1 0 0
2 0 0
3 0 0
4 0 0
5 0 0
6 0 0
7 0 0
8 0 0

AngleAngle Coeffs

1 -0.833 -0.833 -3.5744 112.67 111.27 111.27
2 -0.1729 -0.1729 -0.1729 112.67 112.67 112.67
3 -1.3199 -1.3199 0.1184 112.67 110.77 110.77
4 5.9412 0 0 111.91 112.67 111.91
5 -1.3199 -1.3199 0.1184 112.67 110.77 110.77
6 2.5926 3.9177 0.1689 110.77 108.728 111.27
7 -0.1729 -0.1729 -0.1729 112.67 112.67 112.67
8 -10.1289 -10.1289 -1.6152 112.444 110.954 110.954

Atoms # full

267 3 3 8.0000000000000016e-02 3.7691844214114947e+00 6.4881074208893788e+00 3.7992895187839100e+00 1 0 0
268 3 6 0.0000000000000000e+00 4.7315890562560110e+00 6.8279834785575035e+00 4.9173107380169023e+00 1 0 0
269 3 3 -5.2999999999999999e-02 5.0296086118681087e+00 8.3161064485904195e+00 5.0408472121715597e+00 1 0 0
270 3 3 -5.2999999999999999e-02 4.3326905339892718e+00 6.2595140798936093e+00 6.2797487953238083e+00 1 0 0
271 3 3 -5.2999999999999999e-02 6.0085794722316743e+00 8.6250917135580067e+00 6.1624429092698945e+00 1 0 0
272 3 3 -5.2999999999999999e-02 5.3222837793237838e+00 6.5785890780166092e+00 7.3963094006278887e+00 1 0 0
273 3 6 0.0000000000000000e+00 5.6241731599226537e+00 8.0716303158256224e+00 7.5364644138092318e+00 1 0 0
537 2 3 -5.2999999999999999e-02 1.0059109642241759e+00 1.8811215368394216e+00 1.7442813209729643e-01 0 1 0
542 2 3 -5.2999999999999999e-02 5.4391610644197819e+00 1.0380568316549017e+00 8.5230287327902332e-03 0 1 0
544 2 3 -5.2999999999999999e-02 6.5231576708693035e+00 9.6637735255111878e-02 5.1238144641638417e-01 0 1 0
572 1 3 -5.2999999999999999e-02 2.2375800038070442e-01 6.2151645530784840e+00 2.5860287352198790e+00 1 0 0
792 2 6 2.1570000000000000e-01 6.8973456196978793e+00 3.1623946330954382e+00 7.4295673123530959e+00 0 0 1
817 2 3 -5.2999999999999999e-02 5.5982877432420057e+00 6.3827938638235893e-01 4.4517894918778751e+00 0 0 1
819 2 6 0.0000000000000000e+00 7.0246923579229090e+00 2.4850173405456549e-01 4.8333998936010776e+00 0 0 1
1013 3 2 5.2999999999999999e-02 4.0571286852782036e+00 6.9991478991000928e+00 2.8669825014669859e+00 1 0 0
1014 3 2 5.2999999999999999e-02 5.4046414462580010e+00 8.7248931656869040e+00 4.0882983635710684e+00 1 0 0
1015 3 2 5.2999999999999999e-02 4.1406283352891347e+00 5.1737933224963806e+00 6.2338548913783587e+00 1 0 0
1016 3 2 5.2999999999999999e-02 6.2609016576401313e+00 9.6941491094208363e+00 6.2203623792200746e+00 1 0 0
1188 2 2 5.2999999999999999e-02 1.9035821120078535e+00 2.4774040915638631e+00 4.0919917856032606e-01 0 1 0
1191 2 2 5.2999999999999999e-02 4.9364877929072186e+00 1.5375978702178874e+00 8.5526050692985889e-01 0 1 0
1193 2 2 5.2999999999999999e-02 7.2473268283620333e+00 6.5430761063517828e-01 1.1309978017279492e+00 0 1 0
1210 1 2 5.2999999999999999e-02 6.6397896241643772e-01 6.4082292773762033e+00 4.7150695784363768e+00 1 0 0
1212 1 2 5.2999999999999999e-02 1.2627993249231528e+00 6.0633779578567975e+00 2.2536776545147776e+00 1 0 0
1354 2 5 2.4870000000000000e-01 7.2278488159143111e+00 4.1430237229573565e+00 5.6571255302008892e+00 0 0 1
570 1 3 -5.2999999999999999e-02 6.2900353505762008e-02 5.7766312602172025e+00 4.0380931032524749e+00 1 0 0
1370 2 2 5.2999999999999999e-02 5.3178535609017006e+00 1.6111878283409389e+00 4.8830128308522367e+00 0 0 1
1485 3 4 -1.3300000000000001e-01 3.7514649826223199e+00 5.0902706247072036e+00 3.5392087397425764e+00 1 0 0
1556 2 4 -1.3300000000000001e-01 6.9769615248269696e+00 7.6949568123405614e+00 1.2023631762366087e+00 0 0 1
1560 2 4 -1.3300000000000001e-01 5.5515053793576792e+00 2.9446520376013807e+00 7.0281416718595002e+00 0 0 1
522 2 3 -5.2999999999999999e-02 1.0007497600333851e+01 5.6902014915233601e-01 3.9060543081592941e-01 0 1 0
524 2 3 -5.2999999999999999e-02 1.0490985239165918e+01 1.4051156985660618e+00 1.5653985240567461e+00 0 1 0
525 2 6 0.0000000000000000e+00 1.1427568995241595e+01 5.7853702170322074e-01 2.4387522731093809e+00 0 1 0
526 2 6 2.1570000000000000e-01 1.2531090433763714e+01 1.3287368264366675e+00 3.1915909046382924e+00 0 1 0
743 2 6 1.3300000000000001e-01 1.3897294328898704e+01 6.7471007484981333e+00 4.8981366871593810e+00 0 0 1
744 2 6 0.0000000000000000e+00 1.4184028115060094e+01 7.7381467271442279e+00 6.0474446854987622e+00 0 0 1
745 2 3 -5.2999999999999999e-02 1.3195645553618558e+01 8.9288008545848374e+00 6.3369741369030743e+00 0 0 1
762 2 3 -5.2999999999999999e-02 8.8070646355787385e+00 8.8654099927537313e+00 4.2154456036972610e+00 0 0 1
763 2 6 0.0000000000000000e+00 8.2093084876300537e+00 9.0343673839611203e+00 2.8181973552164692e+00 0 0 1
764 2 6 2.1570000000000000e-01 8.2293964989345803e+00 7.8548507071859044e+00 1.8531085000940763e+00 0 0 1
765 2 6 8.2699999999999996e-02 1.0066869950630940e+01 6.2969073505908666e+00 2.5815471815320272e+00 0 0 1
766 2 3 -5.2999999999999999e-02 1.0956298723763474e+01 7.5414470847908879e+00 2.4340792916107641e+00 0 0 1
767 2 3 -5.2999999999999999e-02 1.0302280440325084e+01 5.5088260236486013e+00 3.8725606449720589e+00 0 0 1
768 2 3 -5.2999999999999999e-02 1.2379685614602039e+01 7.4054879234342748e+00 2.9705189524883671e+00 0 0 1
769 2 3 -5.2999999999999999e-02 1.1761340679176554e+01 5.3650462138808663e+00 4.2734500008863225e+00 0 0 1
770 2 6 0.0000000000000000e+00 1.2480615680964785e+01 6.7094493556570223e+00 4.3280309757229274e+00 0 0 1
793 2 6 8.2699999999999996e-02 8.8959308381168576e+00 4.6131551451564583e+00 6.7878060545186356e+00 0 0 1
794 2 3 -5.2999999999999999e-02 9.0194865760735290e+00 6.1035956302998020e+00 7.1016929190408504e+00 0 0 1
820 2 6 2.1570000000000000e-01 8.0126888720001403e+00 1.4264504895750796e+00 4.8616936753322539e+00 0 0 1
1564 2 4 -1.3300000000000001e-01 8.1183036421573789e+00 2.0721719315282847e+00 3.6025061181992961e+00 0 0 1
1180 2 2 5.2999999999999999e-02 1.0981270234536893e+01 2.3288401675561268e+00 1.2243941150704591e+00 0 1 0
1181 2 5 2.4870000000000000e-01 1.4190177136654123e+01 8.4556133287112289e-01 4.2995683126976969e+00 0 1 0
1183 2 2 5.2999999999999999e-02 1.4396459503095597e+01 8.4218938025686019e-01 1.0708469164304675e+00 0 1 0
1323 2 2 5.2999999999999999e-02 1.2337100664559999e+01 8.9410219709143011e+00 5.6511081203305649e+00 0 0 1
1333 2 2 5.2999999999999999e-02 9.5079528811524963e+00 9.9155258451955799e+00 5.9545418431002943e+00 0 0 1
1335 2 2 5.2999999999999999e-02 8.2864716329553385e+00 8.0452270106488246e+00 4.7340098356868792e+00 0 0 1
1336 2 5 2.4870000000000000e-01 8.1725644348322888e+00 5.8129197104226797e+00 1.9008196443223366e+00 0 0 1
1337 2 2 5.2999999999999999e-02 1.0981484613739161e+01 7.8651081487561321e+00 1.3791977362851411e+00 0 0 1
1338 2 2 5.2999999999999999e-02 9.7939136726436544e+00 4.5292667504023463e+00 3.8231977541712965e+00 0 0 1
1339 2 2 5.2999999999999999e-02 1.2852473235283799e+01 8.4029619894929350e+00 3.0134238872994654e+00 0 0 1
1340 2 2 5.2999999999999999e-02 1.1841992827335117e+01 4.8340823200352414e+00 5.2364030623339115e+00 0 0 1
1355 2 2 5.2999999999999999e-02 8.5750434765883874e+00 6.7097749351012643e+00 6.3008136482489494e+00 0 0 1
1372 2 5 2.4870000000000000e-01 9.8356994059814191e+00 1.8948290402101364e+00 5.7128831504275510e+00 0 0 1
1356 2 2 5.2999999999999999e-02 9.8194118435115954e+00 2.6913626546748910e+00 7.3337652721586837e+00 0 0 1
1424 2 1 -4.1410000000000002e-01 1.3506010751498797e+01 3.8545199459448531e-01 3.7217230993428743e+00 0 1 0
1441 2 1 -4.1410000000000002e-01 8.6151400627091856e+00 6.5689150052570477e+00 2.3956235488006370e+00 0 0 1
1443 2 1 -4.1410000000000002e-01 7.4626444470590387e+00 4.2430556756258566e+00 6.6287997429242873e+00 0 0 1
1445 2 1 -4.1410000000000002e-01 9.3633278754496470e+00 1.0812814473678867e+00 5.3634296845920195e+00 0 0 1
1522 2 4 -1.3300000000000001e-01 1.2029562381548445e+01 2.1427467531650213e+00 4.2398953780303916e+00 0 1 0
1553 2 4 -1.3300000000000001e-01 1.4543245177749769e+01 5.4908346785435906e+00 5.0739087333635045e+00 0 0 1
996 2 2 5.2999999999999999e-02 9.4785473239526341e-01 9.9272808708277704e+00 7.1929613003162443e+00 1 0 0
796 2 3 -5.2999999999999999e-02 1.0437407072564250e+01 6.5429660175645443e+00 7.3977329913000123e+00 0 0 1
253 2 6 1.3300000000000001e-01 1.2553924575179003e+00 5.4510320610788225e+00 1.1182828719407329e+01 1 0 0
274 3 6 2.1570000000000000e-01 6.5500286773725733e+00 8.6249003548952157e+00 8.6661174837548263e+00 1 0 0
275 3 6 8.2699999999999996e-02 5.0158591440322997e+00 7.5834427593982374e+00 1.0370796141761698e+01 1 0 0
276 3 3 -5.2999999999999999e-02 3.7360611408966089e+00 8.3856292039388496e+00 1.0223080229856500e+01 1 0 0
277 3 3 -5.2999999999999999e-02 4.9931643210153709e+00 6.7669997262409654e+00 1.1658439290810833e+01 1 0 0
278 3 3 -5.2999999999999999e-02 2.5730745629801555e+00 7.4134879063559875e+00 1.0110940017603367e+01 1 0 0
279 3 3 -5.2999999999999999e-02 3.8060517813889230e+00 5.8091082795355069e+00 1.1683616699447473e+01 1 0 0
280 3 6 0.0000000000000000e+00 2.4518109471491614e+00 6.4280221543557801e+00 1.1285040534749946e+01 1 0 0
396 2 3 -5.2999999999999999e-02 1.9116767704040756e+00 1.2577513184788397e-01 1.3121568025223258e+01 0 1 0
596 2 6 2.1570000000000000e-01 5.0223566968058346e+00 1.3116037596210433e+00 1.4750466841685329e+01 1 0 0
624 2 6 2.1570000000000000e-01 6.5502358091938628e-01 9.2187253226886785e+00 1.3224261078571702e+01 1 0 0
625 2 6 8.2699999999999996e-02 2.4481829827331913e+00 9.0564539183895363e+00 1.4871659891324418e+01 1 0 0
789 2 3 -5.2999999999999999e-02 7.5601894191564769e+00 4.5654171327575366e+00 9.5623422199876522e+00 0 0 1
791 2 6 0.0000000000000000e+00 7.0373749024810213e+00 3.2668098320885330e+00 8.9331760642272382e+00 0 0 1
1004 2 2 5.2999999999999999e-02 2.4298197470897498e-01 6.4942998694651770e+00 8.8564554293531152e+00 1 0 0
1017 3 2 5.2999999999999999e-02 4.9634954229614596e+00 6.1472013248108599e+00 8.3411729570128230e+00 1 0 0
1018 3 5 2.4870000000000000e-01 6.4716234922852172e+00 8.9556163474020440e+00 1.0705275080198527e+01 1 0 0
1019 3 2 5.2999999999999999e-02 3.7712936659411107e+00 9.0487082807715247e+00 9.3438769242767847e+00 1 0 0
1020 3 2 5.2999999999999999e-02 5.9403347915243545e+00 6.2221891927415323e+00 1.1794592666541947e+01 1 0 0
1021 3 2 5.2999999999999999e-02 1.6325339657562266e+00 7.9582762374168832e+00 9.9343935054510641e+00 1 0 0
1022 3 2 5.2999999999999999e-02 3.7409770172691075e+00 5.2935151753471397e+00 1.2656333582930145e+01 1 0 0
1097 2 2 5.2999999999999999e-02 1.3230979556813196e+00 1.0123827682553275e+00 1.2843678204119708e+01 0 1 0
1099 2 2 5.2999999999999999e-02 2.9284745800533201e+00 9.0641541381074497e-02 1.1183724515806411e+01 0 1 0
1367 2 2 5.2999999999999999e-02 7.8680452168010824e+00 9.9740045285754775e-01 1.3167366404385733e+01 0 0 1
1227 2 2 5.2999999999999999e-02 6.2327195100044657e+00 3.8873744600065345e+00 1.4245388332812677e+01 1 0 0
1228 2 5 2.4870000000000000e-01 3.0136730241674803e+00 1.4240621864520895e+00 1.4364005436313381e+01 1 0 0
1229 2 2 5.2999999999999999e-02 1.2738739314102758e+00 2.9901132856435590e+00 1.5035030464556636e+01 1 0 0
1246 2 5 2.4870000000000000e-01 2.6164863801140767e+00 8.9043107763432445e+00 1.2845004630633005e+01 1 0 0
1366 2 2 5.2999999999999999e-02 1.1604672757034603e+01 2.7564164507465287e+00 1.4410266831219813e+01 0 0 1
1352 2 2 5.2999999999999999e-02 6.8963124348882845e+00 5.4132462928650344e+00 9.3358446629697003e+00 0 0 1
1353 2 2 5.2999999999999999e-02 7.0141033346283486e+00 1.1157726858749852e+00 9.3275785302924508e+00 0 0 1
1406 3 1 -4.1410000000000002e-01 6.2954045518996251e+00 8.1969776901822815e+00 1.0067265943174007e+01 1 0 0
1429 2 1 -4.1410000000000002e-01 3.7546383253477709e+00 2.0371530384326944e+00 1.4655401790281390e+01 1 0 0
1431 2 1 -4.1410000000000002e-01 1.9448001625739026e+00 8.6493461015462163e+00 1.3549138573710016e+01 1 0 0
1483 2 4 -1.3300000000000001e-01 1.2928610411475880e+00 4.3628677109012557e+00 1.2094481720608751e+01 1 0 0
1525 3 4 -1.3300000000000001e-01 2.6936214568625783e+00 8.9469573172083772e-01 8.3544079204762003e+00 0 1 0
1532 2 4 -1.3300000000000001e-01 5.3791338403421474e+00 9.2822860006066499e-01 1.3433276358096323e+01 1 0 0
1536 2 4 -1.3300000000000001e-01 5.5012071929784434e-01 9.3806773829786003e+00 1.1821017177194955e+01 1 0 0
771 2 6 1.3300000000000001e-01 1.2254960021707291e+01 6.3175299447421827e+00 9.2217686427978975e+00 0 0 1
772 2 6 0.0000000000000000e+00 1.2145437223387148e+01 7.7745772805520472e+00 9.7199756158288420e+00 0 0 1
773 2 3 -5.2999999999999999e-02 1.1016722358133347e+01 8.0917491518681715e+00 1.0706941630653425e+01 0 0 1
774 2 3 -5.2999999999999999e-02 1.3438122343439444e+01 8.4604525513963775e+00 1.0164366570311325e+01 0 0 1
775 2 3 -5.2999999999999999e-02 1.0826216233487724e+01 9.5866868399365295e+00 1.0975565021823941e+01 0 0 1
776 2 3 -5.2999999999999999e-02 1.3280543877575424e+01 9.9678709562350107e+00 1.0283549270168342e+01 0 0 1
785 2 6 1.3300000000000001e-01 9.2221273253299163e+00 3.3328173476412886e+00 1.2915636687049492e+01 0 0 1
786 2 6 0.0000000000000000e+00 8.8050647571048337e+00 3.3217469779275675e+00 1.1427066560378091e+01 0 0 1
787 2 3 -5.2999999999999999e-02 7.9087200150547465e+00 4.4999476622432990e+00 1.1041732793602261e+01 0 0 1
788 2 3 -5.2999999999999999e-02 8.2319318992324746e+00 2.0014646922701291e+00 1.0900651249809922e+01 0 0 1
790 2 3 -5.2999999999999999e-02 7.6845786744965272e+00 1.9817445195930434e+00 9.4726179010850373e+00 0 0 1
795 2 3 -5.2999999999999999e-02 9.7406389495470727e+00 3.7191990403396722e+00 7.7111124228585757e+00 0 0 1
1559 2 4 -1.3300000000000001e-01 9.9370189220618688e+00 4.5105169785987611e+00 1.3265424951969365e+01 0 0 1
797 2 3 -5.2999999999999999e-02 1.1106774924204105e+01 4.2845607589816748e+00 8.0705933465994839e+00 0 0 1
798 2 6 0.0000000000000000e+00 1.0991733261134490e+01 5.7255258412132850e+00 8.5494804606305035e+00 0 0 1
1557 2 4 -1.3300000000000001e-01 1.3389974594716278e+01 6.0805539298148421e+00 8.4057488105091860e+00 0 0 1
810 2 3 -5.2999999999999999e-02 1.0737814003866999e+01 2.1454793402851093e+00 1.4703688731266354e+01 0 0 1
811 2 3 -5.2999999999999999e-02 8.6097679810307017e+00 1.1016795309402418e+00 1.3968650393924712e+01 0 0 1
812 2 6 0.0000000000000000e+00 9.7435057713603754e+00 2.0292675087816612e+00 1.3549115680536348e+01 0 0 1
1341 2 2 5.2999999999999999e-02 1.0064844515220065e+01 7.6379643129703112e+00 1.0387084595440486e+01 0 0 1
1342 2 2 5.2999999999999999e-02 1.4262714903234770e+01 8.2220990755854615e+00 9.4755733605922821e+00 0 0 1
1343 2 2 5.2999999999999999e-02 1.0106874326608215e+01 9.7601612526759727e+00 1.1794439362605665e+01 0 0 1
1350 2 2 5.2999999999999999e-02 8.3401096951791214e+00 5.4609003394400073e+00 1.1372037064375876e+01 0 0 1
1351 2 2 5.2999999999999999e-02 8.9471145103909837e+00 1.1716890573717589e+00 1.1020094602740723e+01 0 0 1
1486 3 4 -1.3300000000000001e-01 7.9352527902739478e+00 8.5794224981841118e+00 8.3763704588564352e+00 1 0 0
1357 2 2 5.2999999999999999e-02 1.0467558572320012e+01 7.6212844851197765e+00 7.6149551183699353e+00 0 0 1
1358 2 2 5.2999999999999999e-02 1.1590471873840444e+01 3.6607627132372889e+00 8.8386871810517516e+00 0 0 1
1237 2 5 2.4870000000000000e-01 1.1550675564162313e+01 9.2796739404856421e+00 1.5046352781595608e+01 1 0 0
575 2 6 1.3300000000000001e-01 5.3332668095531710e-01 4.4032000653249623e+00 1.8881796640388291e+01 1 0 0
592 2 3 -5.2999999999999999e-02 7.4779078396567238e+00 4.2276312921071639e+00 1.6060734573402762e+01 1 0 0
593 2 3 -5.2999999999999999e-02 6.6627252225613356e+00 1.3833387418614405e+00 1.6741681747974990e+01 1 0 0
595 2 6 0.0000000000000000e+00 6.1486159152112982e+00 2.0364981213625719e+00 1.5436984968992531e+01 1 0 0
597 2 6 8.2699999999999996e-02 3.3343801535989210e+00 2.8719453752967090e+00 1.5773171642297543e+01 1 0 0
598 2 3 -5.2999999999999999e-02 2.0702194149812176e+00 3.6779929354071403e+00 1.5369754046356706e+01 1 0 0
599 2 3 -5.2999999999999999e-02 3.2801161620529702e+00 2.2585574514573290e+00 1.7181607842075813e+01 1 0 0
600 2 3 -5.2999999999999999e-02 1.5384353857945940e+00 4.5803959004287327e+00 1.6507488835083166e+01 1 0 0
601 2 3 -5.2999999999999999e-02 2.7525220166098983e+00 3.2285701871732431e+00 1.8228638483043781e+01 1 0 0
602 2 6 0.0000000000000000e+00 1.4015023040352914e+00 3.7830317002272289e+00 1.7796520873953945e+01 1 0 0
626 2 3 -5.2999999999999999e-02 3.8177916591372068e+00 8.4453940510434844e+00 1.5220668462708218e+01 1 0 0
628 2 3 -5.2999999999999999e-02 4.3729286579581368e+00 8.8802874726557040e+00 1.6573756446465776e+01 1 0 0
975 2 2 5.2999999999999999e-02 4.0547559933617894e+00 9.4062262423491863e+00 2.2569808925177281e+01 1 0 0
1226 2 2 5.2999999999999999e-02 6.9001563034588704e+00 3.2432000879983625e-01 1.6571088487830959e+01 1 0 0
1230 2 2 5.2999999999999999e-02 4.2528489615248892e+00 1.8449511437734589e+00 1.7494967226946933e+01 1 0 0
1231 2 2 5.2999999999999999e-02 5.6718899965764191e-01 5.0140478100483250e+00 1.6220034839854392e+01 1 0 0
1232 2 2 5.2999999999999999e-02 2.6931168854646006e+00 2.7402003909398407e+00 1.9217570244811643e+01 1 0 0
1244 2 2 5.2999999999999999e-02 4.3844941055917613e-01 7.1863664806548950e+00 1.5367108308608410e+01 1 0 0
1249 2 2 5.2999999999999999e-02 5.4317006800302137e+00 8.5875658460577089e+00 1.6667335934554249e+01 1 0 0
1503 2 4 -1.3300000000000001e-01 1.0957670215000448e+00 2.0021308491873319e-01 1.6289468387682525e+01 0 1 0
1529 2 4 -1.3300000000000001e-01 1.0061056527201895e+00 5.6959129589167006e+00 1.9227340300573108e+01 1 0 0
589 2 6 1.3300000000000001e-01 9.6115088233545922e+00 4.0018016529624898e+00 1.7535591850455486e+01 1 0 0
590 2 6 0.0000000000000000e+00 8.4957345435804132e+00 3.2945189237485550e+00 1.6735867690709824e+01 1 0 0
591 2 3 -5.2999999999999999e-02 7.8340423532652999e+00 2.1247839843576819e+00 1.7479396582152759e+01 1 0 0
611 2 6 8.2699999999999996e-02 1.0618316541447786e+01 8.2416227949774505e+00 1.6538533059152144e+01 1 0 0
612 2 3 -5.2999999999999999e-02 1.1680426918878750e+01 7.1776003504440178e+00 1.6236394813856524e+01 1 0 0
613 2 3 -5.2999999999999999e-02 9.2191592863178169e+00 7.6545783375551073e+00 1.6459575594526317e+01 1 0 0
614 2 3 -5.2999999999999999e-02 1.1482701205420888e+01 5.8587228391387649e+00 1.6994774956438928e+01 1 0 0
615 2 3 -5.2999999999999999e-02 9.0895145188651902e+00 6.5486804921602983e+00 1.7476753988384150e+01 1 0 0
616 2 6 0.0000000000000000e+00 1.0010165371345916e+01 5.4039640426911673e+00 1.7051700772840423e+01 1 0 0
1224 2 2 5.2999999999999999e-02 8.5815479989164967e+00 1.4048385677023900e+00 1.7844185885073365e+01 1 0 0
1225 2 2 5.2999999999999999e-02 7.9675295972199001e+00 4.9807279652959231e+00 1.5423852963023879e+01 1 0 0
808 2 3 -5.2999999999999999e-02 1.1221668117955783e+01 8.0337434823012899e-01 1.5230739288379677e+01 0 0 1
1238 2 2 5.2999999999999999e-02 1.2696727446519535e+01 7.5804617100035783e+00 1.6390850678692971e+01 1 0 0
1239 2 2 5.2999999999999999e-02 8.4413118246695173e+00 8.4204104480141684e+00 1.6591478118847398e+01 1 0 0
1240 2 2 5.2999999999999999e-02 1.2120754563657922e+01 5.0691996819471319e+00 1.6564416797470994e+01 1 0 0
1241 2 2 5.2999999999999999e-02 8.0412582875033003e+00 6.2343634916860466e+00 1.7597028720373668e+01 1 0 0
1364 2 2 5.2999999999999999e-02 1.1866527875847924e+01 9.1735769128805200e-01 1.6119270266829993e+01 0 0 1
1430 2 1 -4.1410000000000002e-01 1.0760063281136363e+01 9.3816026728021509e+00 1.5656069688344681e+01 1 0 0
1531 2 4 -1.3300000000000001e-01 1.0679195825554281e+01 3.1352722313732642e+00 1.7891962011058219e+01 1 0 0
1235 2 2 5.2999999999999999e-02 9.6541627707272770e+00 9.8867657580740449e+00 1.8572983983453526e+01 1 0 0
594 2 3 -5.2999999999999999e-02 6.2868077227660448e+00 3.5665023742557009e+00 1.5298466393492577e+01 1 0 0
973 2 2 5.2999999999999999e-02 6.6221636414805500e+00 9.3710378825826712e+00 2.2723176036543450e+01 1 0 0
1247 2 2 5.2999999999999999e-02 3.7634522073112460e+00 7.3447044193537696e+00 1.5168927688286360e+01 1 0 0
539 2 6 0.0000000000000000e+00 9.8284443530912569e-01 1.4859694333305951e+00 2.8995107930593353e+01 0 1 -1
540 2 6 2.1570000000000000e-01 2.1779863584717991e+00 6.7611992627743411e-01 2.8474474478991070e+01 0 1 -1
541 2 6 8.2699999999999996e-02 4.4241408044848232e+00 3.3920520384252728e-01 2.9408073333574716e+01 0 1 -1
708 2 6 2.1570000000000000e-01 1.0449723375788638e+00 8.5939615270679415e+00 2.9629222811427120e+01 1 0 0
709 2 6 8.2699999999999996e-02 2.7379676366022720e-01 9.6896832384680405e+00 2.7524748033817943e+01 1 0 0
945 2 5 2.4870000000000000e-01 6.2210655019118732e+00 9.0312227049284761e+00 3.0054429676377826e+01 1 0 0
947 2 2 5.2999999999999999e-02 3.4924587680069732e+00 9.7063880619847964e+00 2.9940380517030306e+01 1 0 0
972 2 5 2.4870000000000000e-01 8.0253745597875756e+00 1.0080478899178388e+01 2.5213627695021295e+01 1 0 0
1190 2 5 2.4870000000000000e-01 3.2701219042334753e+00 2.0094896694259217e+00 2.9554894575613801e+01 0 1 -1
1300 2 5 2.4870000000000000e-01 2.2089487822299518e+00 9.4274179662231088e+00 2.8120978848126747e+01 1 0 0
1302 2 2 5.2999999999999999e-02 1.0757061214628616e-01 8.2457935660515229e+00 2.5936725058460073e+01 1 0 0
1425 2 1 -4.1410000000000002e-01 3.4447938834078622e+00 1.2759110500530650e+00 2.8891515362652775e+01 0 1 -1
1437 2 1 -4.1410000000000002e-01 1.3116919279202504e+00 8.9679071213529902e+00 2.8219476363898544e+01 1 0 0
1548 2 4 -1.3300000000000001e-01 1.6475181405915207e+00 7.3408946833005011e+00 2.9909643322060088e+01 1 0 0
1470 2 4 -1.3300000000000001e-01 7.6984700824977992e+00 9.5932762219605170e+00 2.8154575368081506e+01 1 0 0
1178 2 2 5.2999999999999999e-02 9.3222884549095966e+00 1.1526306682185270e+00 3.0052207463640745e+01 0 1 -1
206 2 3 -5.2999999999999999e-02 5.9897229799662597e+00 9.9254961046262782e+00 2.3437457522449666e+01 1 0 0
1398 2 1 -4.1410000000000002e-01 5.9863802028535300e+00 9.9469271557007755e+00 2.9712005441914030e+01 1 0 0
1524 2 4 -1.3300000000000001e-01 2.1636676801613608e+00 6.0705281877255479e-01 2.7055976135119092e+01 0 1 -1
711 2 3 -5.2999999999999999e-02 7.4786234526804662e-03 9.3333872302351484e+00 2.6052682129337420e+01 1 0 0
141 2 6 1.3300000000000001e-01 2.3494063922274053e+00 1.4221675776401819e+01 6.6486767029121696e-01 1 0 1
142 2 6 0.0000000000000000e+00 7.8435538054782317e-01 1.3959533385161134e+01 6.5455484380755979e-01 1 0 1
143 2 3 -5.2999999999999999e-02 2.8758390824082819e-01 1.2795678230894985e+01 1.5256975587961090e+00 1 0 1
163 2 6 8.2699999999999996e-02 5.2499458312178024e+00 1.0699456744531004e+01 4.7258667115384567e-01 1 0 1
164 2 3 -5.2999999999999999e-02 5.7227766316644200e+00 1.2145966522524708e+01 7.6295173989372456e-01 1 0 1
166 2 3 -5.2999999999999999e-02 4.7142317723157054e+00 1.3094786281633443e+01 1.4203100576252787e+00 1 0 1
1348 2 2 5.2999999999999999e-02 1.1764361451796091e+01 1.3916926986566384e+01 5.8905045288304310e+00 0 0 1
168 2 6 0.0000000000000000e+00 3.2565735483307785e+00 1.2972240691588116e+01 8.2292655146761451e-01 1 0 1
242 2 3 -5.2999999999999999e-02 1.4396342895718532e+00 1.0912100089144872e+01 7.1148288660778434e+00 1 0 0
244 2 3 -5.2999999999999999e-02 2.8842713951275050e+00 1.0762436310815811e+01 6.6590400026652556e+00 1 0 0
245 2 6 0.0000000000000000e+00 3.6351952322781633e+00 1.2088270420151099e+01 6.5515804104708888e+00 1 0 0
246 2 6 2.1570000000000000e-01 5.0039203533188816e+00 1.1902747000872463e+01 5.9070176928871287e+00 1 0 0
435 2 6 1.3300000000000001e-01 4.8595160502761692e+00 1.6921979595323599e+01 6.0430782501878486e+00 0 0 0
436 2 6 0.0000000000000000e+00 3.5121331809227772e+00 1.6226210894936496e+01 5.7455067088862783e+00 0 0 0