LAMMPS (22 Jul 2025)
units real
atom_style full
boundary p p p
pair_style lj/class2/coul/long 12.0 12.0
special_bonds  lj 0 0 1 coul 0 0 1
bond_style class2
angle_style class2
dihedral_style class2
improper_style class2
dielectric 1.0
kspace_style ewald 0.001
read_data lammps.data
Reading data file ...
  orthogonal box = (0 0 0) to (30.298 30.298 30.298)
  4 by 2 by 4 MPI processor grid
  reading atoms ...
  1566 atoms
  reading velocities ...
  1566 velocities
  scanning bonds ...
  3 = max bonds/atom
  scanning angles ...
  3 = max angles/atom
  scanning dihedrals ...
  12 = max dihedrals/atom
  scanning impropers ...
  1 = max impropers/atom
  orthogonal box = (0 0 0) to (30.298 30.298 30.298)
  4 by 2 by 4 MPI processor grid
  reading bonds ...
  1683 bonds
  reading angles ...
  2700 angles
  reading dihedrals ...
  4068 dihedrals
  reading impropers ...
  840 impropers
Finding 1-2 1-3 1-4 neighbors ...
  special bond factors lj:    0        0        1       
  special bond factors coul:  0        0        1       
     3 = max # of 1-2 neighbors
     6 = max # of 1-3 neighbors
     9 = max # of special neighbors
  special bonds CPU = 0.002 seconds
  read_data CPU = 0.038 seconds
pair_modify  mix sixthpower
#element_type N H C O H C

reset_timestep 0
min_style cg
minimize 1e-6 1e-6 2000 20000
Ewald initialization ...
  using 12-bit tables for long-range coulomb
  G vector (1/distance) = 0.069840424
  estimated absolute RMS force accuracy = 0.33668063
  estimated relative force accuracy = 0.0010139037
  KSpace vectors: actual max1d max3d = 3 1 13
                  kxmax kymax kzmax  = 1 1 1
Generated 15 of 15 mixed pair_coeff terms from sixthpower/sixthpower mixing rule
Neighbor list info ...
  update: every = 1 steps, delay = 0 steps, check = yes
  max neighbors/atom: 2000, page size: 100000
  master list distance cutoff = 14
  ghost atom cutoff = 14
  binsize = 7, bins = 5 5 5
  1 neighbor lists, perpetual/occasional/extra = 1 0 0
  (1) pair lj/class2/coul/long, perpetual
      attributes: half, newton on
      pair build: half/bin/newton
      stencil: half/bin/3d
      bin: standard
Per MPI rank memory allocation (min/avg/max) = 15.58 | 15.66 | 16.27 Mbytes
   Step          Temp          E_pair         E_mol          TotEng         Press     
         0   0             -474.4502      -673.3639      -1147.8141      2626.816     
        16   0             -486.62343     -695.67466     -1182.2981      2419.6974    
Loop time of 0.135091 on 32 procs for 16 steps with 1566 atoms

76.0% CPU use with 32 MPI tasks x no OpenMP threads

Minimization stats:
  Stopping criterion = linesearch alpha is zero
  Energy initial, next-to-last, final = 
     -1147.81410125373  -1182.29809319176  -1182.29809319176
  Force two-norm initial, final = 73.075834 54.740158
  Force max component initial, final = 16.65567 7.6945766
  Final line search alpha, max atom move = 4.0438419e-12 3.1115651e-11
  Iterations, force evaluations = 16 93

MPI task timing breakdown:
Section |  min time  |  avg time  |  max time  |%varavg| %total
---------------------------------------------------------------
Pair    | 0.000643   | 0.019298   | 0.038158   |   6.7 | 14.28
Bond    | 1.3368e-05 | 0.0051658  | 0.0096247  |   3.2 |  3.82
Kspace  | 0.0018318  | 0.024152   | 0.047489   |   7.2 | 17.88
Neigh   | 0          | 0          | 0          |   0.0 |  0.00
Comm    | 0.069677   | 0.077792   | 0.081849   |   1.1 | 57.58
Output  | 0          | 0          | 0          |   0.0 |  0.00
Modify  | 0          | 0          | 0          |   0.0 |  0.00
Other   |            | 0.008684   |            |       |  6.43

Nlocal:        48.9375 ave          83 max           3 min
Histogram: 2 1 0 4 2 6 7 5 2 3
Nghost:        3027.12 ave        3376 max        2649 min
Histogram: 2 2 2 4 4 6 2 6 2 2
Neighs:          16351 ave       31611 max         630 min
Histogram: 2 1 3 5 6 3 4 4 1 3

Total # of neighbors = 523232
Ave neighs/atom = 334.12005
Ave special neighs/atom = 5.5977011
Neighbor list builds = 0
Dangerous builds = 0


# ============================================
# Low-temperature equilibration (solid state)
# ============================================

timestep 1.0

velocity all create 300.0 928374 dist gaussian mom yes rot yes

fix EQ all npt temp 300.0 300.0 100.0 iso 1.0 1.0 1000.0

thermo_style custom step temp press pe etotal enthalpy vol density
thermo 1000

run 500000     # 500 ps
Ewald initialization ...
  using 12-bit tables for long-range coulomb
  G vector (1/distance) = 0.069840424
  estimated absolute RMS force accuracy = 0.33668063
  estimated relative force accuracy = 0.0010139037
  KSpace vectors: actual max1d max3d = 3 1 13
                  kxmax kymax kzmax  = 1 1 1
Generated 15 of 15 mixed pair_coeff terms from sixthpower/sixthpower mixing rule
Per MPI rank memory allocation (min/avg/max) = 14.46 | 14.55 | 15.14 Mbytes
   Step          Temp          Press          PotEng         TotEng        Enthalpy        Volume        Density    
        16   300            4719.8723     -1182.2981      217.19223      2131.6598      27812.619      0.80004585   
      1000   294.41616      666.24079     -51.983371      1321.4585      1620.9695      30825.182      0.72185691   
      2000   292.6827       534.58214      102.81789      1468.1732      1691.4551      28639.341      0.77695119   
      3000   298.95419     -531.3449      -36.768789      1357.8428      1149.7446      26854.439      0.8285919    
      4000   290.81725     -220.85183     -25.242383      1331.4107      1250.0652      25255.541      0.88104905   
      5000   307.39283     -966.76251     -76.594732      1357.3829      1007.1023      24843.934      0.89564601   
      6000   291.49783     -460.42737     -112.2227       1247.6052      1085.6157      24124.043      0.92237317   
      7000   306.92616      2227.2756     -185.41172      1246.3889      2005.0057      23354.61       0.95276139   
      8000   299.15442     -1261.6172     -108.77467      1286.7711      864.32591      22959.734      0.96914758   
      9000   299.09431      1565.632      -141.36266      1253.9026      1788.2479      23402.185      0.95082447   
     10000   305.22017      2609.3243     -124.43026      1299.412       2199.2833      23647.022      0.9409798    
     11000   304.93469      140.65849     -195.73822      1226.7722      1274.2409      23140.112      0.96159304   
     12000   302.10231     -848.46591     -223.11036      1186.1872      905.56434      22678.416      0.98116949   
     13000   312.70639      713.9255      -251.10659      1207.6586      1440.8595      22397.599      0.99347125   
     14000   300.17223      732.12855     -181.12912      1219.1646      1457.672       22337.708      0.9961349    
     15000   303.68634      1585.2031     -234.86445      1181.8225      1686.3393      21823.016      1.0196286    
     16000   299.16616     -1030.3504     -260.62067      1134.9798      809.48562      21661.196      1.0272457    
     17000   299.83596     -169.48841     -299.67832      1099.0468      1046.3582      21315.752      1.0438933    
     18000   299.41986     -506.28677     -216.21039      1180.5736      1021.9425      21484.039      1.0357163    
     19000   292.03674      63.184372     -261.18932      1101.1526      1120.9008      21430.949      1.0382821    
     20000   291.89052     -401.53611     -212.09291      1149.5669      1022.7324      21658.938      1.0273528    
     21000   306.54304      1078.4396     -273.54428      1156.4691      1488.8962      21136.092      1.0527665    
     22000   294.53998      788.99312     -263.61151      1110.408       1350.9903      20908.095      1.0642466    
     23000   300.99432     -630.64754     -190.93522      1213.1936      1016.4374      21392.701      1.0401384    
     24000   289.88351     -984.85926     -257.46826      1094.829       789.00902      21291.965      1.0450595    
     25000   307.89641      562.05781     -259.00161      1177.3252      1350.5384      21131.199      1.0530103    
     26000   299.28153     -86.16525      -254.80698      1141.3317      1114.6958      21196.242      1.049779     
     27000   295.77804     -1509.7218     -331.90339      1047.8916      583.51005      21091.242      1.0550052    
     28000   315.62404     -446.31232     -321.06153      1151.3144      1015.3296      20891.786      1.0650774    
     29000   302.40358     -1389.6116     -328.42242      1082.2805      657.5938       20955.564      1.0618359    
     30000   296.98455     -3073.5097     -189.3919       1196.0315      237.21951      21390.6        1.0402406    
     31000   303.30021     -805.76588     -289.98717      1124.8985      875.86926      21191.691      1.0500045    
     32000   301.68884     -2398.137      -335.96151      1071.4072      326.06521      21311.092      1.0441216    
     33000   303.52394      1386.8653     -282.59208      1133.3373      1561.9784      21192.574      1.0499607    
     34000   293.79796     -1259.8385     -271.14798      1099.41        708.59623      21270.57       1.0461107    
     35000   285.36918     -712.08041     -247.90567      1083.3324      861.20741      21389.096      1.0403138    
     36000   295.91706      1153.8225     -271.5232       1108.9203      1464.2896      21118.596      1.0536387    
     37000   296.83979      1435.3795     -284.07133      1100.6767      1547.6278      21350.959      1.0421719    
     38000   298.52512     -2126.5171     -330.18014      1062.4299      400.71747      21336.567      1.0428749    
     39000   297.59663     -2265.0559     -316.0588       1072.2199      380.38343      20943.47       1.0624491    
     40000   305.84262     -437.16981     -283.25952      1143.4864      1009.1775      21065.849      1.0562769    
     41000   307.33205      552.19517     -305.73311      1127.961       1294.2902      20653.808      1.0773495    
     42000   306.12656     -2446.9488     -361.09628      1066.9742      305.66385      21333.445      1.0430275    
     43000   298.10536      846.92312     -260.29367      1130.3582      1387.516       20819.956      1.0687521    
     44000   307.87409      890.23494     -354.85908      1081.3636      1351.2099      20784.321      1.0705844    
     45000   304.50685     -1747.8877     -337.32283      1083.1918      554.21295      20751.471      1.0722792    
     46000   295.88313     -1152.573      -303.96998      1076.3153      723.31238      21000.709      1.0595533    
     47000   296.93377      990.81624     -313.3538       1071.8327      1377.1296      21127.758      1.0531818    
     48000   289.89016      1309.1191     -325.24169      1027.0866      1425.2517      20854.905      1.066961     
     49000   299.61562      396.27248     -337.24224      1060.4549      1181.7906      20995.131      1.0598348    
     50000   306.08512      78.733877     -290.60333      1137.2739      1161.2239      20857.808      1.0668125    
     51000   302.15553      1609.4385     -366.26761      1043.2782      1543.6257      21316.774      1.0438432    
     52000   303.20851     -1598.4037     -319.54918      1094.9087      599.12356      21268.221      1.0462262    
     53000   302.17933      713.02956     -272.39029      1137.2665      1358.6513      21289.442      1.0451833    
     54000   300.35004     -707.10994     -291.6942       1109.429       895.94147      20701.879      1.0748478    
     55000   299.60613      1160.5807     -301.10765      1096.5453      1453.9717      21117.158      1.0537105    
     56000   297.44486     -396.68957     -286.09731      1101.4733      979.67695      21052.697      1.0569368    
     57000   302.76465     -1372.6201     -314.01901      1098.3683      681.54645      20822.086      1.0686427    
     58000   296.90772     -1554.2179     -306.62736      1078.4376      605.83855      20849.95       1.0672146    
     59000   296.38964     -128.3637      -284.38446      1098.2636      1059.1408      20898.348      1.064743     
     60000   300.29349      563.41319     -283.61173      1117.2477      1291.0791      21155.595      1.051796     
     61000   305.7994      -422.60028     -248.35038      1178.194       1050.3647      20740.757      1.0728331    
     62000   300.24296     -189.31381     -303.64721      1096.9765      1038.89        21038.623      1.0576438    
     63000   308.02257     -530.16104     -249.81804      1187.0973      1024.2956      21055.965      1.0567728    
     64000   297.23707     -1308.8528     -245.49728      1141.1041      740.32792      20995.932      1.0597944    
     65000   302.98396      1894.2584     -289.73948      1123.6709      1703.8847      21002.592      1.0594583    
     66000   297.81829      544.94727     -315.75344      1073.5593      1240.1154      20957.054      1.0617604    
     67000   302.81772      257.99999     -325.32366      1087.3112      1165.5737      20799.729      1.0697914    
     68000   293.35827     -1218.1515     -268.41056      1100.0963      725.28159      21097.91       1.0546718    
     69000   299.64051      1814.3498     -310.39336      1087.42        1647.0991      21151.55       1.0519971    
     70000   285.67837     -3254.1932     -307.7977       1024.8827      30.761107      20946.925      1.0622738    
     71000   298.26132      924.50191     -311.71004      1079.6694      1362.089       20946.489      1.062296     
     72000   300.20981     -246.76816     -280.58332      1119.8858      1044.8346      20854.15       1.0669996    
     73000   293.85797      14.753684     -308.40036      1062.4376      1066.8653      20578.028      1.081317     
     74000   316.75486     -846.59278     -281.1909       1196.4603      939.4712       20814.419      1.0690363    
     75000   294.80441     -1918.2909     -347.22557      1028.0275      442.35023      20934.76       1.0628911    
     76000   306.296       -434.17532     -303.37338      1125.4876      993.36171      20866.363      1.0663751    
     77000   297.15162      82.734396     -272.9216       1113.2811      1138.3155      20747.915      1.0724629    
     78000   301.48382     -245.42783     -390.92534      1015.487       940.43641      20967.863      1.0612131    
     79000   301.31769      524.10164     -264.6045       1141.0328      1299.1731      20689.549      1.0754884    
     80000   307.89153      229.62771     -320.14634      1116.1577      1186.7237      21071.506      1.0559934    
     81000   310.31613     -1772.0112     -281.69688      1165.9179      621.62817      21061.426      1.0564988    
     82000   303.61555      138.73772     -341.77662      1074.5801      1116.1487      20544.48       1.0830827    
     83000   289.92421      711.40203     -375.31795      977.16913      1193.1942      20821.556      1.0686699    
     84000   299.84911     -242.19707     -355.90232      1042.8841      969.4269       20796.473      1.0699589    
     85000   313.76898     -593.48451     -356.84806      1106.8741      926.91543      20791.582      1.0702105    
     86000   293.9373      -1712.947      -380.09747      991.11057      466.31417      21007.338      1.059219     
     87000   299.55832      2178.5412     -316.54296      1080.887       1743.6889      20861.337      1.0666321    
     88000   305.81939     -976.19443     -300.18182      1126.4558      829.17566      20881.113      1.0656219    
     89000   303.07504      638.49605     -319.96876      1093.8665      1289.2646      20983.9        1.060402     
     90000   292.96909      467.84027     -291.81654      1074.8748      1221.8285      21538.086      1.0331173    
     91000   288.36477     -1500.2311     -273.37375      1071.8386      606.77011      21256.066      1.0468245    
     92000   301.23242      959.37202     -310.7768       1094.4627      1389.6352      21096.619      1.0547363    
     93000   300.04146     -842.56334     -357.52693      1042.1568      781.5383       21209.323      1.0491316    
     94000   299.37998      2274.358      -298.02829      1098.5697      1795.5645      21013.327      1.0589171    
     95000   296.60222      686.096       -303.52419      1080.1156      1291.3459      21110.348      1.0540504    
     96000   303.12293     -549.96149     -315.16094      1098.8978      930.04977      21051.727      1.0569855    
     97000   312.12103      281.65304     -286.35251      1169.682       1255.4429      20878.463      1.0657571    
     98000   301.87057      1401.5503     -369.51766      1038.6988      1459.7112      20597.299      1.0803053    
     99000   292.75955     -79.152997     -340.07445      1025.6394      1001.2547      21123.884      1.0533749    
    100000   297.93489     -622.8976      -320.32048      1069.5362      879.52322      20916.577      1.0638151    
    101000   301.42892     -761.59093     -294.26973      1111.8864      879.26762      20943.4        1.0624526    
    102000   299.58904     -1315.3961     -351.8286       1045.7446      650.00697      20628.845      1.0786532    
    103000   300.82184      718.30528     -355.07288      1048.2513      1264.4621      20639.177      1.0781132    
    104000   300.05283     -2749.697      -309.5612       1090.1756      258.11409      20748.881      1.072413     
    105000   289.153        379.54319     -304.90894      1043.9805      1158.6777      20721.242      1.0738435    
    106000   296.44519      764.10116     -306.73342      1076.1738      1309.7103      20956.945      1.0617659    
    107000   307.68729     -2637.5931     -295.32558      1140.0257      341.34957      20762.852      1.0716914    
    108000   305.57212     -1463.1585     -324.77729      1100.7068      650.07914      21117.892      1.0536739    
    109000   299.74146     -1308.0442     -354.4594       1043.8248      642.66344      21029.105      1.0581225    
    110000   293.10497      1203.1512     -324.80469      1042.5205      1413.214       21126.075      1.0532657    
    111000   306.09937      158.48508     -232.18979      1195.7539      1243.8615      20813.707      1.0690729    
    112000   296.03575      1510.8504     -297.32238      1083.6749      1539.7115      20696.76       1.0751137    
    113000   309.87303     -594.02997     -296.95278      1148.5949      967.70675      20879.778      1.06569      
    114000   304.27152      3348.5258     -375.71674      1043.7001      2064.8902      20911.11       1.0640932    
    115000   301.06528     -2216.2302     -351.66285      1052.7969      380.14915      20811.192      1.0692021    
    116000   290.44177      828.1466      -254.84707      1100.0544      1345.5703      20328.084      1.0946123    
    117000   295.53019      617.54838     -353.8395       1024.7993      1211.7274      20755.235      1.0720847    
    118000   292.54665     -4088.9354     -292.97536      1071.7453     -161.08037      20673.573      1.0763195    
    119000   305.88459     -436.17273     -274.67467      1152.2671      1020.412       20728.245      1.0734807    
    120000   300.53149     -1354.9109     -247.36163      1154.608       751.94721      20377.588      1.0919531    
    121000   297.70324      247.24438     -335.95279      1052.8232      1127.8688      20812.426      1.0691387    
    122000   291.54701     -325.33766     -340.22207      1019.8353      923.41625      20321.357      1.0949746    
    123000   307.52139      1274.3502     -312.35824      1122.2191      1505.8695      20642.913      1.0779181    
    124000   295.15348     -1596.46       -335.15964      1041.7218      562.02184      20603.252      1.0799931    
    125000   305.14133     -2764.1948     -283.40983      1140.0646      298.07229      20886.401      1.065352     
    126000   293.02093     -662.55879     -292.37174      1074.5614      871.55062      21009.653      1.0591022    
    127000   301.97749      415.45495     -252.11408      1156.6012      1283.8569      21002.821      1.0594468    
    128000   292.01546      1371.2258     -326.25111      1035.9916      1455.1256      20958.879      1.0616679    
    129000   304.6506      -1842.0296     -295.72398      1125.4612      570.31997      20664.791      1.0767769    
    130000   307.62397      1971.1438     -282.46759      1152.5883      1754.8117      20949.006      1.0621683    
    131000   296.54492     -2380.2714     -298.14482      1085.2277      364.30783      20767.519      1.0714506    
    132000   302.43597      168.25936     -273.00921      1137.8448      1188.1432      20497.403      1.0855702    
    133000   296.38305     -2144.3974     -336.56807      1046.0493      395.03333      20816.632      1.0689227    
    134000   311.73662      321.47595     -321.75018      1132.4911      1229.137       20613.851      1.0794378    
    135000   296.21671     -218.58512     -306.35846      1075.4829      1007.7694      21241.205      1.0475569    
    136000   298.3229       497.45278     -264.30295      1127.3638      1278.1574      20785.243      1.0705369    
    137000   302.90657     -1225.7054     -313.85124      1099.1981      723.34929      21025.739      1.058292     
    138000   300.3407       1276.8467     -339.63533      1061.4444      1449.6393      20846.599      1.0673861    
    139000   303.36516     -1359.8007     -306.03418      1109.1545      687.74329      21249.804      1.047133     
    140000   299.04312      39.502314     -302.58262      1092.4439      1104.7055      21283.713      1.0454647    
    141000   299.24996      1913.8527     -289.57911      1106.4123      1687.6147      20822.987      1.0685965    
    142000   294.87577     -620.30275     -280.33894      1095.247       898.94775      21698.968      1.0254575    
    143000   297.55411      2118.7392     -235.06601      1153.0143      1810.5265      21278.963      1.0456981    
    144000   296.6384      -753.07428     -319.81178      1063.9968      833.3416       21001.46       1.0595154    
    145000   290.89197      2849.7336     -329.70493      1027.2967      1910.2893      21245.986      1.0473212    
    146000   310.06521      734.30177     -327.81599      1118.6282      1340.7228      20738.982      1.0729249    
    147000   301.1182       1676.3603     -256.54429      1148.1624      1659.9341      20933.074      1.0629767    
    148000   302.25745     -1492.8464     -282.15717      1127.8641      674.84515      20807.76       1.0693784    
    149000   299.99172      1555.8402     -304.16081      1095.2909      1566.6567      20773.862      1.0711234    
    150000   301.28722     -244.40313     -284.88374      1120.6114      1045.7334      21007.385      1.0592166    
    151000   307.93228      1060.2542     -287.87755      1148.6166      1469.136       20728.527      1.0734661    
    152000   302.20716      691.09359     -322.35656      1087.4301      1298.7633      20967.901      1.0612111    
    153000   310.24964     -198.98907     -334.00476      1113.2998      1052.8281      20837.585      1.0678478    
    154000   303.67498     -118.51078     -274.64186      1141.9921      1105.5515      21083.956      1.0553698    
    155000   293.35507      1319.4412     -365.74519      1002.7467      1411.7717      21256.117      1.046822     
    156000   303.9181       1922.4904     -286.87931      1130.8888      1719.659       20999.343      1.0596222    
    157000   304.73824     -498.2547      -367.80688      1053.7872      901.43345      20966.494      1.0612824    
    158000   297.60701      558.28331     -348.37941      1039.9477      1207.8517      20621.995      1.0790115    
    159000   299.09767      273.81625     -348.34089      1046.9401      1130.1802      20844.783      1.0674791    
    160000   297.65046      365.80141     -317.11925      1071.4105      1183.662       21041.224      1.0575131    
    161000   291.80625     -1315.5356     -344.65336      1016.6134      623.14108      20508.585      1.0849783    
    162000   298.96693     -1108.9355     -284.17627      1110.4948      776.03341      20680.633      1.0759521    
    163000   304.50956     -2687.3491     -269.14038      1151.3869      335.74567      20811.299      1.0691966    
    164000   301.83435     -1817.4247     -315.74334      1092.3041      536.2307       20979.728      1.0606129    
    165000   305.12171      1485.4825     -288.13713      1135.2458      1591.5707      21063.509      1.0563943    
    166000   303.84635     -954.6057      -308.26103      1109.1724      818.06598      20909.894      1.0641551    
    167000   280.29599     -1200.2419     -352.40957      955.16218      592.20697      20735.205      1.0731203    
    168000   301.88486     -1745.0807     -293.80316      1114.48        575.3822       21182.448      1.0504626    
    169000   292.87316      430.38078     -331.97321      1034.2706      1166.6363      21088.552      1.0551398    
    170000   303.1568       1916.5722     -308.75541      1105.4613      1691.0426      20950.103      1.0621127    
    171000   296.06602      104.9217      -227.89478      1153.2437      1185.0233      20768.608      1.0713944    
    172000   304.11651      2307.8373     -201.1089       1217.5848      1927.9409      21105.469      1.054294     
    173000   296.8533       185.03591     -337.08734      1047.7237      1103.9445      20833.632      1.0680504    
    174000   298.99333      799.43695     -291.42769      1103.3665      1346.4252      20847.358      1.0673473    
    175000   297.13225     -1121.0398     -270.17254      1115.9398      771.55255      21064.453      1.0563469    
    176000   289.38983     -2456.2254     -282.05122      1067.943       314.50533      21033.096      1.0579218    
    177000   290.18617     -127.73438     -283.2985       1070.4106      1030.8604      21230.756      1.0480725    
    178000   300.16898     -603.9796      -331.43072      1068.8479      886.65845      20683.548      1.0758005    
    179000   292.72999      2040.8704     -327.33779      1038.2382      1666.4113      21105.128      1.0543111    
    180000   302.97363     -882.46224     -260.20824      1153.154       882.68294      21015.936      1.0587856    
    181000   295.69989     -553.70691     -248.24693      1131.1835      960.08506      21188.017      1.0501865    
    182000   308.74163     -174.22842     -281.75849      1158.5113      1105.6063      20821.008      1.068698     
    183000   291.91696     -300.64346     -311.95872      1049.8245      958.1295       20913.078      1.0639931    
    184000   294.51302     -365.23126     -332.80285      1041.0909      929.31924      20983.974      1.0603983    
    185000   304.00846     -255.48813     -359.41535      1058.7743      981.87499      20638.395      1.0781541    
    186000   297.52969      2097.6899     -324.34975      1063.6167      1689.7339      20466.259      1.0872222    
    187000   305.14963     -1304.5201     -330.15605      1093.3571      697.88776      20786.73       1.0704603    
    188000   292.80811      33.498775     -302.90168      1063.0387      1073.1599      20717.03       1.0740618    
    189000   292.43244     -2130.4802     -289.07018      1075.1177      440.79619      20415.314      1.0899353    
    190000   296.62441     -175.58614     -334.04027      1049.703       995.7373       21074.233      1.0558567    
    191000   302.83365     -1205.0474     -318.60814      1094.1011      735.99762      20376.447      1.0920142    
    192000   286.35102     -491.74147     -299.41209      1036.4062      887.97874      20696.718      1.0751159    
    193000   292.43337     -1126.9139     -369.16291      995.02931      659.97034      20387.06       1.0914457    
    194000   299.61316      918.60875     -325.78202      1071.9037      1349.0555      20687.655      1.0755869    
    195000   305.4182       1561.4273     -311.62506      1113.141       1585.7578      20754.464      1.0721246    
    196000   295.35377      2681.6475     -380.18279      997.63304      1797.6846      20456.927      1.0877181    
    197000   304.57127      7.328135      -294.83362      1125.9815      1128.2134      20883.022      1.0655245    
    198000   297.75692     -639.09897     -311.65099      1077.3755      883.33184      20818.784      1.0688122    
    199000   300.90945      538.7054      -339.33872      1064.3941      1228.0505      20830.789      1.0681962    
    200000   299.39494     -1964.2155     -391.29127      1005.3765      410.81569      20755.406      1.0720759    
    201000   300.8969       811.1807      -332.83301      1070.8413      1312.5537      20431.74       1.089059     
    202000   299.46822     -2299.8414     -322.89936      1074.1102      375.52231      20827.987      1.06834      
    203000   303.94456      97.104215     -314.6755       1103.2161      1132.335       20561.822      1.0821692    
    204000   296.26713      1364.7898     -328.61379      1053.4628      1463.5367      20602.525      1.0800312    
    205000   296.90493      1816.77       -303.77153      1081.2804      1625.2234      20529.463      1.0838749    
    206000   309.39052     -1370.3195     -376.5099       1066.7869      658.67251      20421.336      1.0896138    
    207000   291.32772      834.93767     -335.39574      1023.6387      1280.659       21107.536      1.0541908    
    208000   296.42108      131.74559     -361.47781      1021.317       1061.574       20952.209      1.0620059    
    209000   306.35762     -894.85749     -320.59589      1108.5525      835.99762      20884.506      1.0654488    
    210000   293.43732      905.30872     -357.75202      1011.1236      1283.2906      20614.031      1.0794284    
    211000   300.02478      410.13788     -287.96935      1111.6366      1236.536       20881.156      1.0656196    
    212000   300.93065     -779.35571     -328.73609      1075.0957      835.59027      21071.902      1.0559735    
    213000   303.3415       2370.6596     -344.14248      1070.9358      1780.2507      20516.06       1.084583     
    214000   295.95397      128.40406     -368.33512      1012.2806      1050.7136      20523.398      1.0841952    
    215000   291.03883     -1909.8067     -241.8099       1115.8769      528.31432      21095.45       1.0547948    
    216000   298.24882      513.36717     -306.23283      1085.0883      1240.7814      20795.308      1.0700188    
    217000   294.2362      -514.31741     -280.23423      1092.3681      935.42794      20923.151      1.0634808    
    218000   315.25455     -657.17791     -257.94822      1212.7041      1013.7995      20753.241      1.0721878    
    219000   297.31702      93.712317     -282.00061      1104.9737      1133.2214      20668.558      1.0765807    
    220000   292.19837      1154.0148     -210.61777      1152.4782      1504.8928      20939.518      1.0626496    
    221000   302.60386      628.60471     -225.5326       1186.1047      1379.9531      21145.057      1.0523202    
    222000   300.77195     -1427.8074     -254.94206      1148.1494      706.82419      21194.014      1.0498894    
    223000   292.56553      759.67362     -281.46344      1083.3453      1317.8958      21170.616      1.0510497    
    224000   306.1124       2310.8514     -223.81775      1204.1867      1915.9217      21118.856      1.0536257    
    225000   309.715        2524.724      -352.50107      1092.3094      1863.3504      20940.53       1.0625982    
    226000   300.26173     -377.96231     -293.90492      1106.8064      989.49048      21282.979      1.0455007    
    227000   297.96258      671.85336     -282.22312      1107.7627      1313.2063      20967.291      1.061242     
    228000   297.93902      3353.4389     -259.75178      1130.1241      2153.8478      20932.277      1.0630172    
    229000   303.54298      1619.513      -292.03609      1123.9821      1625.2093      21221.412      1.0485339    
    230000   299.13677     -683.58749     -336.13873      1059.3247      847.46201      21251.246      1.0470619    
    231000   300.72524      331.74955     -328.06674      1074.8068      1178.7724      21488.36       1.0355081    
    232000   303.21085      267.78949     -276.60597      1137.8629      1220.521       21164.886      1.0513343    
    233000   291.14528     -1718.8        -290.32325      1067.8601      536.55352      21195.514      1.0498151    
    234000   305.88818      1286.5627     -301.72813      1125.2304      1527.4504      21436.648      1.0380061    
    235000   293.35048      988.96147     -307.64133      1060.8292      1369.6245      21409.941      1.0393009    
    236000   311.11387      268.87188     -350.48711      1100.8491      1183.4158      21056.375      1.0567522    
    237000   292.663       -1435.8138     -355.03245      1010.231       563.31151      21342.991      1.042561     
    238000   308.7686       230.76691     -309.09996      1131.2956      1203.4769      21447.437      1.0374839    
    239000   291.52636      1087.3982     -285.07472      1074.8863      1408.4224      21031.893      1.0579823    
    240000   300.78779     -1248.4816     -344.753        1058.4123      673.81174      21122.82       1.053428     
    241000   299.72364      1502.0604     -323.80023      1074.4009      1534.0301      20981.879      1.0605042    
    242000   306.5468       2063.2416     -269.35266      1160.6783      1805.1221      21417.023      1.0389572    
    243000   292.42394     -739.46925     -289.58958      1074.5586      846.95053      21105.31       1.054302     
    244000   304.47977     -241.04299     -291.77527      1128.6131      1054.5385      21071.666      1.0559853    
    245000   310.69829     -163.24928     -266.81797      1182.5795      1132.7648      20923.331      1.0634717    
    246000   296.2339       195.2589      -314.86217      1067.0594      1126.3673      20826.942      1.0683936    
    247000   305.58214      463.28405     -278.32982      1147.201       1289.2872      21029.495      1.0581029    
    248000   302.74692      142.12885     -218.22076      1194.0838      1237.8086      21094.5        1.0548423    
    249000   300.56621      638.68045     -353.71161      1048.4201      1244.4658      21047.373      1.0572041    
    250000   295.37749     -4466.2036     -259.86242      1118.064      -260.53242      21165.218      1.0513178    
    251000   300.83895      2241.1706     -339.09767      1064.3063      1753.4227      21083.452      1.055395     
    252000   300.98616      854.65135     -272.69973      1131.391       1395.2747      21171.307      1.0510154    
    253000   300.19073     -1222.8096     -345.34989      1055.0302      681.80502      20928.409      1.0632137    
    254000   290.17161      808.66292     -315.63705      1038.0041      1283.08        20780.554      1.0707785    
    255000   303.32511      690.55145     -315.70351      1099.2984      1310.4018      20961.547      1.0615328    
    256000   302.22596     -665.78529     -325.58312      1084.2912      882.84704      20746.491      1.0725366    
    257000   301.80084     -576.52026     -310.98082      1096.9103      921.68828      20840.029      1.0677226    
    258000   299.21792     -1541.6814     -366.22402      1029.6179      553.48459      21176.69       1.0507483    
    259000   298.72683      1041.0223     -270.57531      1122.9757      1447.7014      21388.516      1.0403419    
    260000   311.03771     -1462.9647     -318.6694       1132.3115      685.71544      20931.73       1.063045     
    261000   305.7708       1153.2826     -339.05732      1087.3536      1438.4285      20873.159      1.0660279    
    262000   294.05763     -315.02729     -263.81234      1107.957       1009.7973      21365.318      1.0414715    
    263000   297.11563      2699.9208     -340.55018      1045.4847      1863.9061      20785.004      1.0705493    
    264000   298.59143      241.60447     -261.37325      1131.5461      1204.9825      20841.57       1.0676437    
    265000   296.04355     -537.88682     -293.54679      1087.4868      924.22334      20812.4        1.0691401    
    266000   296.00251     -350.70843     -269.71619      1111.126       1003.5834      21026.083      1.0582746    
    267000   294.26844      1476.7568     -256.25891      1116.4939      1567.0483      20920.034      1.0636393    
    268000   294.64332     -403.45451     -296.71223      1077.7893      953.36662      21146.049      1.0522708    
    269000   298.50714     -173.65361     -373.40648      1019.1197      966.03915      20959.246      1.0616494    
    270000   301.37035     -2002.1663     -309.35292      1096.53        488.34625      20828.538      1.0683117    
    271000   307.27575      1571.5985     -253.74194      1179.6895      1668.463       21325.053      1.043438     
    272000   287.48237      520.21636     -284.22396      1056.872       1219.6972      21461.581      1.0368001    
    273000   295.29785     -302.51229     -316.585        1060.9699      968.19824      21027.935      1.0581814    
    274000   298.75083      2070.2855     -313.94159      1079.7214      1713.9251      21004.996      1.059337     
    275000   294.51996     -204.22507     -352.80461      1021.1215      958.01308      21188.599      1.0501577    
    276000   286.24007     -259.2429      -338.42159      996.8791       917.5078       20993.3        1.0599272    
    277000   302.8765       2958.7779     -333.13075      1079.7783      1970.9326      20652.119      1.0774376    
    278000   312.19087     -1076.4767     -291.73163      1164.6287      835.29952      20977.305      1.0607354    
    279000   292.68216      1103.1358     -241.81533      1123.5375      1464.4894      21192.797      1.0499497    
    280000   301.67042      164.99813     -295.85342      1111.4293      1162.0209      21024.371      1.0583608    
    281000   313.89638      2588.3855     -307.20721      1157.1093      1957.6747      21207.624      1.0492156    
    282000   289.92532      168.75685     -385.05336      967.43888      1018.9937      20947.475      1.062246     
    283000   296.55554      705.44821     -306.59767      1076.8243      1295.0832      21214.405      1.0488803    
    284000   303.34698     -309.54241     -368.21005      1046.8938      951.51532      21127.809      1.0531793    
    285000   305.41973     -1480.3878     -267.43305      1157.3401      703.40152      21025.47       1.0583055    
    286000   290.77737     -437.31362     -295.24858      1061.2185      927.70636      20933.979      1.0629308    
    287000   305.59162     -3264.8826     -308.23236      1117.3427      108.52274      21187.036      1.0502352    
    288000   307.29506     -703.02638     -272.84842      1160.6731      946.75338      20864.279      1.0664816    
    289000   296.52441     -2645.3203     -318.23287      1065.044       256.6124       20955.069      1.061861     
    290000   300.92184      1871.4999     -248.12541      1155.6652      1728.9779      21005.151      1.0593292    
    291000   281.39443     -1799.4557     -305.47979      1007.2161      452.71901      21129.16       1.0531119    
    292000   293.20692      353.65478     -270.63528      1097.1656      1205.7535      21053.59       1.056892     
    293000   303.96875      513.99086     -269.12442      1148.88        1305.8044      20934.336      1.0629126    
    294000   299.31807     -1114.6503     -261.91636      1134.3928      794.34256      20918.403      1.0637223    
    295000   302.08636      1339.2166     -348.55895      1060.6642      1467.3167      20820.768      1.0687104    
    296000   303.56326      800.41056     -253.04054      1163.0723      1406.6271      20864.502      1.0664702    
    297000   306.1136       2869.5164     -358.56417      1069.4459      1923.2279      20401.515      1.0906724    
    298000   292.94876      5.7172764     -295.90526      1070.6912      1072.3993      20485.613      1.086195     
    299000   285.26014     -488.25174     -325.56883      1005.1605      856.6226       20860.161      1.0666922    
    300000   290.64948      91.326796     -317.09803      1038.7724      1066.0651      20491.409      1.0858878    
    301000   296.76502     -1257.9552     -253.11338      1131.2859      753.70846      20580.927      1.0811646    
    302000   293.14562      1549.8822     -342.94277      1024.5721      1505.11        21259.503      1.0466552    
    303000   300.57224     -1255.77       -268.30952      1133.8503      753.67906      20758.37       1.0719228    
    304000   300.27722      483.00425     -352.20179      1048.5817      1194.5263      20718.626      1.0739791    
    305000   302.23488     -192.07399     -358.67179      1051.2442      993.87031      20481.875      1.0863933    
    306000   305.53447      1791.2163     -324.12632      1101.1821      1644.6076      20802.526      1.0696475    
    307000   295.95571      2916.3892     -317.2131       1063.4107      1951.438       20878.77       1.0657414    
    308000   299.39412      293.85557     -272.20629      1124.4576      1215.0756      21144.857      1.0523302    
    309000   301.29321      790.91706     -280.57158      1124.9515      1363.7791      20705.111      1.0746801    
    310000   304.40546      1049.1314     -312.06295      1107.9787      1426.7639      20834.942      1.0679833    
    311000   305.18358      246.36974     -456.00152      967.67004      1040.9646      20398.972      1.0908084    
    312000   300.26589     -659.02568     -345.26032      1055.4704      854.23158      20937.918      1.0627308    
    313000   309.84768     -25.101159     -366.25094      1079.1785      1071.5051      20961.375      1.0615415    
    314000   297.45027     -1153.8237     -339.44868      1048.1472      700.97836      20631.245      1.0785277    
    315000   292.07096     -1200.5891     -283.23337      1079.2682      716.55352      20715.475      1.0741424    
    316000   302.08193      823.39622     -284.36         1124.8425      1376.7629      20978.707      1.0606645    
    317000   301.60151     -4353.6898     -301.56504      1105.3963     -238.29001      21162.38       1.0514588    
    318000   305.59158      230.74366     -275.84892      1149.726       1219.4919      20731.831      1.073295     
    319000   303.10474     -2269.0232     -261.02183      1152.952       465.29004      20780.7        1.070771     
    320000   301.13435     -519.28465     -334.77155      1070.0105      914.18162      20576.261      1.0814098    
    321000   304.3042       543.16024     -283.84146      1135.7278      1301.8706      20973.825      1.0609114    
    322000   305.99927      2020.4588     -314.76215      1112.7146      1725.0712      20781.581      1.0707256    
    323000   296.5799      -746.14022     -259.35315      1124.1825      893.97551      21155.445      1.0518035    
    324000   300.92956     -965.69569     -234.47618      1169.3505      865.70299      21560.238      1.0320559    
    325000   304.16703      397.7675      -307.72547      1111.2039      1231.4355      20725.902      1.073602     
    326000   302.58013     -1102.7109     -281.4398       1130.0867      791.24365      21069.831      1.0560773    
    327000   301.21932     -216.10703     -324.13161      1081.0468      1014.9898      20959.174      1.061653     
    328000   289.55365     -402.13756     -347.14628      1003.6121      881.61096      20802.402      1.0696539    
    329000   291.80853     -133.62078     -259.96654      1101.3108      1060.6696      20855.332      1.0669391    
    330000   300.4816      -601.77335     -323.4398       1078.2972      895.61837      20815.138      1.0689994    
    331000   308.5615       527.8932      -309.27523      1130.1542      1294.4966      21346.551      1.0423871    
    332000   296.98473      587.00501     -282.56543      1102.8587      1279.2306      20602.104      1.0800533    
    333000   301.7624       538.98988     -289.41682      1118.295       1281.4166      20751.754      1.0722646    
    334000   313.021        759.28111     -318.46604      1141.7668      1369.4273      20559.335      1.0823001    
    335000   287.1586      -1102.9098     -278.0055       1061.5801      720.2965       21217.76       1.0487144    
    336000   302.09117      1029.2953     -296.39899      1112.8466      1427.9471      20991.006      1.0600431    
    337000   291.24889     -280.4454      -327.36033      1031.3064      945.20194      21052.38       1.0569527    
    338000   305.30795      453.96657     -339.82995      1084.4218      1220.8351      20604.253      1.0799406    
    339000   307.40959     -687.23925     -299.18612      1134.8697      924.06587      21032.682      1.0579426    
    340000   288.95796      563.3508      -325.20272      1022.7769      1193.386       20765.743      1.0715422    
    341000   300.63679     -910.47095     -261.7857       1140.6752      861.0017       21062.473      1.0564462    
    342000   300.15425      836.04731     -349.56345      1050.6465      1303.1218      20706.764      1.0745943    
    343000   288.56485      2930.8148     -314.13528      1032.0105      1921.4038      20807.964      1.069368     
    344000   305.58536      964.89721     -283.79187      1141.754       1435.7356      20891.191      1.0651078    
    345000   304.43199     -1935.8997     -294.68906      1125.4764      526.46345      21216.681      1.0487677    
    346000   295.36859     -2101.6868     -321.90245      1055.9825      425.16212      20580.779      1.0811724    
    347000   303.04208      231.75476     -322.42278      1091.2588      1162.9901      21222.895      1.0484607    
    348000   302.74848      1368.5452     -326.48128      1085.8306      1504.9293      20998.161      1.0596819    
    349000   296.18832     -1859.7486     -262.97332      1118.7356      546.2522       21107.306      1.0542023    
    350000   306.52046     -2133.7749     -297.69593      1132.2121      479.93077      20960.926      1.0615643    
    351000   305.50612     -1340.2665     -333.54117      1091.635       676.57506      21234.586      1.0478834    
    352000   303.49185      1369.6468     -331.50164      1084.2781      1506.2327      21124.247      1.0533568    
    353000   288.80713     -560.19595     -269.50911      1077.7668      903.22591      21363.942      1.0415386    
    354000   299.13738      473.2992      -274.41786      1121.0484      1267.206       21174.341      1.0508649    
    355000   295.39385     -71.266267     -341.27308      1036.7297      1014.9805      20925.851      1.0633436    
    356000   303.7915      -153.89782     -276.35165      1140.8259      1093.8815      20915.849      1.0638521    
    357000   301.75135     -712.40951     -312.19088      1095.4694      875.99615      21123.997      1.0533693    
    358000   294.04621      2272.7614     -364.75878      1006.9573      1697.2402      20825.593      1.0684627    
    359000   307.87852     -62.3349       -296.30404      1139.9393      1120.7828      21072.165      1.0559604    
    360000   302.89316      100.79867     -261.35614      1151.6307      1182.3444      20893.057      1.0650127    
    361000   307.43392     -1271.7041     -299.60286      1134.5664      744.88467      21011.068      1.0590309    
    362000   305.91433     -838.77745     -311.47003      1115.6105      861.91932      20738.754      1.0729367    
    363000   296.19852     -318.65541     -239.90634      1141.8502      1042.8066      21312.246      1.044065     
    364000   295.9135      -334.51086     -265.99331      1114.4336      1009.6793      21472.657      1.0362654    
    365000   290.20113     -137.23961     -291.67744      1062.1014      1020.0241      21022.932      1.0584333    
    366000   296.88988     -1080.7025     -342.99621      1041.9855      712.54934      20902.066      1.0645536    
    367000   308.63606     -869.41276     -311.31589      1128.4614      864.15001      20845.576      1.0674385    
    368000   293.25847      1119.5726     -237.80201      1130.2393      1469.6162      20785.2        1.0705392    
    369000   306.47381     -841.65416     -262.99273      1166.6977      911.34585      20803.167      1.0696146    
    370000   297.5401      -722.261       -289.06038      1098.9546      877.58045      21016.328      1.0587659    
    371000   300.94126     -916.2266      -322.35447      1081.5268      803.015        20843.219      1.0675592    
    372000   294.25699     -777.27844     -344.1067       1028.5927      793.93519      20700.549      1.0749169    
    373000   299.59093      682.99736     -282.02309      1115.5589      1327.1463      21241.97       1.0475192    
    374000   294.46132      887.41169     -330.07446      1043.5781      1314.3354      20920.839      1.0635984    
    375000   306.98387     -2164.3369     -290.32688      1141.743       477.5801       21041.362      1.0575062    
    376000   313.3115      -421.23206     -332.00941      1129.5786      1003.4595      20529.753      1.0838596    
    377000   296.43934     -927.99927     -240.70515      1142.1748      859.88462      20857.981      1.0668037    
    378000   303.40501     -1125.7035     -308.29782      1107.0767      766.25336      20760.101      1.0718334    
    379000   295.60264     -190.20149     -325.12687      1053.8499      996.15636      20798.756      1.0698414    
    380000   301.4882      -710.169       -332.57212      1073.8606      855.52015      21081.26       1.0555048    
    381000   299.39584      746.75603     -298.32021      1098.3517      1326.935       20988.911      1.0601489    
    382000   293.29156     -1457.3525     -299.64146      1068.5542      622.89809      20968.114      1.0612004    
    383000   308.37776      78.314469     -327.18727      1111.385       1134.8715      20563.659      1.0820725    
    384000   301.80423     -864.96398     -338.31174      1069.5953      804.51061      21014.094      1.0588784    
    385000   302.90645      825.15835     -313.38642      1099.6624      1350.8376      20871.972      1.0660886    
    386000   295.89602     -246.56182     -330.39899      1049.9464      975.57889      20681.478      1.0759081    
    387000   296.44017     -956.79676     -293.88158      1089.0022      801.38722      20611.803      1.0795451    
    388000   303.67871     -826.94899     -302.40092      1114.2505      859.90947      21089.281      1.0551033    
    389000   303.57547     -1663.0544     -313.05311      1103.1167      585.98585      21321.517      1.043611     
    390000   288.82091     -838.44281     -292.49876      1054.8415      793.31647      21387.691      1.0403821    
    391000   302.33947     -846.10561     -343.65449      1066.7494      805.75941      21150.633      1.0520428    
    392000   300.55036      2470.8996     -330.7131       1071.3446      1823.0152      20859.147      1.066744     
    393000   295.26002     -664.63768     -271.89697      1105.4815      901.16368      21078.778      1.0556291    
    394000   296.95455      685.32015     -313.75821      1071.5252      1276.9847      20556.864      1.0824302    
    395000   288.6261      -410.89577     -307.88064      1038.5508      913.41503      20882.091      1.065572     
    396000   317.49954      1980.957      -306.37719      1174.7479      1775.943       20809.636      1.0692821    
    397000   287.59403     -300.98649     -349.09399      992.52286      901.43936      20749.939      1.0723583    
    398000   292.12954      1248.0891     -289.66011      1073.1148      1460.344       21273.876      1.0459481    
    399000   307.78836     -2479.1883     -337.19055      1098.6322      338.20322      21031.646      1.0579947    
    400000   291.15373     -54.489919     -350.23881      1007.984       991.79065      20377.168      1.0919756    
    401000   298.59759     -376.46635     -330.19259      1062.7555      948.07606      20887.362      1.0653031    
    402000   301.31482      571.21959     -295.76539      1109.8585      1286.4421      21196.848      1.049749     
    403000   298.26851     -1284.2785     -299.89474      1091.5182      691.15769      21375.495      1.0409757    
    404000   287.11186     -58.703515     -333.36631      1006.0012      988.01263      21011.516      1.0590083    
    405000   295.48896     -1074.519      -245.98632      1132.4601      803.90071      20966.405      1.0612869    
    406000   290.27942     -1867.8431     -324.22462      1029.9195      460.73175      20894.851      1.0649212    
    407000   300.97842      792.44946     -259.73289      1144.3217      1392.3474      21460.956      1.0368304    
    408000   292.13307     -1438.0535     -332.26322      1030.5281      591.32157      20941.988      1.0625243    
    409000   304.61282     -738.5706      -383.39455      1037.6144      812.92259      20860.246      1.0666878    
    410000   300.34558     -492.0028      -267.24476      1133.8577      983.20622      20995.673      1.0598074    
    411000   297.89095      740.85318     -287.578        1102.0737      1326.6079      20781.387      1.0707356    
    412000   306.72486      368.31664     -310.51152      1120.35        1230.877       20576.475      1.0813986    
    413000   301.13357      372.28736     -348.88262      1055.8958      1168.5089      20741.249      1.0728076    
    414000   302.35552      1838.7725     -296.01424      1114.4645      1668.5005      20660.179      1.0770173    
    415000   293.61152     -110.64887     -323.6231       1046.0652      1012.6034      20736.036      1.0730773    
    416000   302.20391     -775.77615     -294.39781      1115.3737      879.97606      20806.056      1.069466     
    417000   304.14916     -314.90126     -321.52615      1097.3199      1001.5293      20857.987      1.0668034    
    418000   304.73161      67.209834     -268.9718       1152.5913      1173.4115      21241.099      1.0475621    
    419000   294.22469      1410.1841     -305.33947      1067.2092      1493.2646      20716.404      1.0740942    
    420000   293.08033      472.75558     -332.46165      1034.7486      1176.5654      20569.086      1.081787     
    421000   300.17856     -1410.6045     -255.48444      1144.8388      719.21264      20689.367      1.0754979    
    422000   301.2752      -2335.9904     -338.43517      1067.0039      352.58497      20970.367      1.0610864    
    423000   296.14485     -1127.846      -337.27749      1044.2287      699.75355      20942.677      1.0624893    
    424000   292.33981     -719.87722     -367.30709      996.44868      780.96212      20525.129      1.0841038    
    425000   302.79252      1465.5225     -333.27443      1079.2429      1522.414       20734.954      1.0731333    
    426000   316.33734     -878.40658     -296.06015      1179.6433      911.62697      20921.358      1.063572     
    427000   291.76971     -1289.8446     -306.12335      1054.9729      659.39142      21029.198      1.0581179    
    428000   301.54959     -1168.9163     -311.19087      1095.5282      737.31652      21012.633      1.058952     
    429000   304.14251     -818.55696     -361.53004      1057.285       804.6791       21160.144      1.0515699    
    430000   296.11334     -863.40431     -286.12943      1095.2297      828.9668       21145.628      1.0522918    
    431000   292.79641      1643.4819     -284.68639      1081.1994      1590.3549      21242.695      1.0474834    
    432000   293.19331     -443.10528     -357.80891      1009.9284      873.59142      21097.498      1.0546924    
    433000   295.1928       1021.5485     -235.11391      1141.951       1458.2223      21228.78       1.04817      
    434000   296.04481     -906.71761     -314.28607      1066.7534      791.55106      20811.541      1.0691842    
    435000   302.61022      798.32978     -274.44697      1137.22        1380.534       20898.206      1.0647502    
    436000   294.25642      1308.2858     -302.69957      1069.9971      1472.0853      21073.798      1.0558785    
    437000   303.95134     -734.60214     -287.70951      1130.2137      905.23227      20999.965      1.0595908    
    438000   300.99735      529.72778     -306.17813      1097.9648      1261.1691      21125.299      1.0533044    
    439000   299.43895     -2398.3825     -279.34793      1117.5251      391.36125      20760.619      1.0718067    
    440000   298.01093      691.59425     -350.82077      1039.3906      1247.2369      20607.007      1.0797963    
    441000   306.16636     -1582.6609     -278.44175      1149.8144      669.98542      20788.48       1.0703702    
    442000   291.4682      -1251.6976     -294.31347      1065.3763      686.2519       20768.561      1.0713968    
    443000   298.78891     -289.79435     -317.48818      1076.3524      987.09894      21118.322      1.0536524    
    444000   303.1358       12.107665     -300.03036      1114.0884      1117.782       20917.856      1.06375      
    445000   294.70047      446.69792     -255.30519      1119.463       1254.0894      20665.235      1.0767538    
    446000   295.86459     -1719.7147     -312.57324      1067.6255      542.10053      20953.717      1.0619295    
    447000   302.89346     -544.43771     -283.12378      1129.8644      964.88311      20778.332      1.070893     
    448000   295.89694      2492.7035     -298.05012      1082.2995      1833.6861      20668.879      1.076564     
    449000   302.18951     -1331.7366     -274.26056      1135.4438      729.03042      20925.398      1.0633666    
    450000   293.19387     -1313.5487     -337.49785      1030.2421      631.81756      20798.117      1.0698743    
    451000   302.48935     -380.90859     -265.43921      1145.6638      1029.8761      20843.272      1.0675565    
    452000   301.61584     -506.65311     -268.00008      1139.0281      983.90617      20993.579      1.0599131    
    453000   309.24055      2945.3917     -356.45784      1086.1394      1977.7804      20757.312      1.0719775    
    454000   301.83523      3110.8608     -296.55858      1111.493       2066.4227      21048.198      1.0571627    
    455000   288.88689     -472.48497     -353.45426      994.19375      853.39595      20432.993      1.0889922    
    456000   296.61575      1239.9034     -319.23785      1064.465       1433.8165      20425.659      1.0893832    
    457000   298.6936       838.47193     -331.27251      1062.1235      1315.8164      20746.454      1.0725385    
    458000   302.62725     -385.05958     -344.82645      1066.9199      951.17133      20611.606      1.0795554    
    459000   306.80072      161.02517     -324.48345      1106.732       1155.8511      20916.112      1.0638387    
    460000   284.74433     -1470.9412     -365.91682      962.40631      511.11731      21036.988      1.0577261    
    461000   301.68974     -168.32881     -318.74134      1088.6315      1036.7372      21139.055      1.052619     
    462000   300.11092      356.83552     -260.96579      1139.042       1248.5373      21040.279      1.0575606    
    463000   294.5706      -2097.3491     -298.09234      1076.07        443.1711       20691.297      1.0753976    
    464000   305.99468      1683.9561     -353.21649      1074.2388      1582.4228      20692.566      1.0753316    
    465000   299.12685      1017.9306     -262.62582      1132.7913      1439.5779      20665.327      1.076749     
    466000   290.31648     -649.51713     -319.18458      1035.1324      836.68615      20949.637      1.0621363    
    467000   296.3342      -436.38871     -325.61388      1056.7756      922.13725      21155.308      1.0518103    
    468000   305.5684       27.258604     -351.68215      1073.7846      1081.9453      20528.061      1.0839489    
    469000   294.3025      -104.48167     -274.47005      1098.4416      1066.4367      21003.932      1.0593907    
    470000   295.69828      918.94928     -274.0347       1105.3882      1385.3863      20892.368      1.0650478    
    471000   310.18418     -919.59157     -238.94828      1208.0509      931.24554      20639.712      1.0780853    
    472000   303.52122     -778.85898     -327.33855      1088.5781      852.815        20755.882      1.0720513    
    473000   295.64172      226.17713     -303.03464      1076.1245      1143.7645      20505.925      1.0851191    
    474000   308.01303     -823.33623     -299.56488      1137.306       888.33795      20734.351      1.0731646    
    475000   293.18305     -1397.2242     -325.35378      1042.3357      625.49511      20456.343      1.0877492    
    476000   306.45296     -306.46575     -318.23479      1111.3584      1017.6336      20969.898      1.0611101    
    477000   304.90708      1601.2017     -342.75562      1079.6261      1562.5961      20682.272      1.0758668    
    478000   303.95557      170.4739      -218.91112      1199.0318      1251.6001      21144.152      1.0523652    
    479000   297.01271     -649.50867     -323.26926      1062.2855      862.24857      21117.828      1.053677     
    480000   316.11786      774.53384     -267.9744       1206.7052      1446.4823      21227.133      1.0482513    
    481000   289.83601     -130.04204     -258.15494      1093.9207      1054.15        20970.243      1.0610926    
    482000   321.93008      1975.5505     -292.08605      1209.7074      1804.4645      20643.132      1.0779067    
    483000   298.9651      -1736.5694     -306.89718      1087.7653      549.15438      21267.045      1.0462841    
    484000   293.25955     -2104.2047     -354.60303      1013.4433      379.16018      20668.991      1.0765581    
    485000   306.64383      322.39726     -333.15319      1097.3304      1194.5295      20672.592      1.0763706    
    486000   306.09359      2404.9109     -374.90226      1053.0145      1769.8114      20437.193      1.0887684    
    487000   303.0946      -1754.2275     -330.08163      1083.8449      551.17562      20820.724      1.0687126    
    488000   300.25964      674.68914     -350.54929      1050.1522      1255.0942      20828.183      1.0683299    
    489000   301.88454     -1378.808      -291.49756      1116.7841      697.29564      20861.248      1.0666366    
    490000   303.05899      1167.7859     -341.91857      1071.8418      1426.1275      20802.447      1.0696516    
    491000   296.05448      1012.4957     -309.43497      1071.6496      1379.5501      20851.69       1.0671255    
    492000   298.58478      676.45981     -348.19408      1044.6943      1245.9441      20399.404      1.0907853    
    493000   298.82988     -559.45947     -269.52614      1124.5056      951.95885      21147.659      1.0521907    
    494000   302.01768      609.36662     -299.55762      1109.3451      1295.4251      20938.482      1.0627022    
    495000   294.4307       1193.6864     -271.48758      1102.0222      1466.7199      20949.174      1.0621598    
    496000   288.39923     -884.2434      -270.5048       1074.8683      803.1223       21072.471      1.055945     
    497000   292.71324     -614.82347     -266.98106      1098.5167      910.63797      20953.249      1.0619532    
    498000   301.69975      2554.0687     -275.79152      1131.6281      1924.8569      21295.607      1.0448808    
    499000   302.31122     -3115.7299     -313.22651      1097.0456      138.55327      21093.709      1.0548819    
    500000   299.69933      1140.6629     -318.39377      1079.6939      1424.3957      20720.981      1.073857     
    500016   292.23257     -117.37448     -292.30543      1070.9501      1035.4911      20714.626      1.0741864    
Loop time of 217.362 on 32 procs for 500000 steps with 1566 atoms

Performance: 198.747 ns/day, 0.121 hours/ns, 2300.311 timesteps/s, 3.602 Matom-step/s
100.0% CPU use with 32 MPI tasks x no OpenMP threads

MPI task timing breakdown:
Section |  min time  |  avg time  |  max time  |%varavg| %total
---------------------------------------------------------------
Pair    | 78.595     | 98.498     | 114.51     |  96.8 | 45.32
Bond    | 22.093     | 26.704     | 30.608     |  37.2 | 12.29
Kspace  | 24.479     | 44.314     | 67.895     | 165.5 | 20.39
Neigh   | 10.258     | 10.268     | 10.275     |   0.2 |  4.72
Comm    | 30.149     | 30.616     | 31.046     |   4.2 | 14.09
Output  | 0.0079484  | 0.009643   | 0.060699   |   9.3 |  0.00
Modify  | 5.072      | 5.2229     | 5.3769     |   3.4 |  2.40
Other   |            | 1.73       |            |       |  0.80

Nlocal:        48.9375 ave          57 max          39 min
Histogram: 1 1 2 7 1 6 3 7 2 2
Nghost:        3779.97 ave        3868 max        3706 min
Histogram: 1 6 1 6 4 7 2 1 2 2
Neighs:        21235.8 ave       25241 max       15861 min
Histogram: 1 1 3 5 3 1 5 7 3 3

Total # of neighbors = 679545
Ave neighs/atom = 433.93678
Ave special neighs/atom = 5.5977011
Neighbor list builds = 19049
Dangerous builds = 0

unfix EQ


# ============================================
# Heating scan: enthalpy vs temperature
# ============================================

variable T equal 300
variable T_end equal 900
variable dT equal 10

shell echo "# T(K)    Enthalpy(kcal/mol)    Volume(A^3)" > H_T.dat

label loop_T
if "${T} > ${T_end}" then "jump SELF end_loop"

reset_timestep 0
velocity all create ${T} 293847 dist gaussian mom yes rot yes
velocity all create 300 293847 dist gaussian mom yes rot yes

fix NPT all npt temp ${T} ${T} 100.0 iso 1.0 1.0 1000.0
fix NPT all npt temp 300 ${T} 100.0 iso 1.0 1.0 1000.0
fix NPT all npt temp 300 300 100.0 iso 1.0 1.0 1000.0

thermo_style custom step temp press enthalpy vol density
thermo 2000

run 500000     # 500 ps per temperature
Ewald initialization ...
  using 12-bit tables for long-range coulomb
  G vector (1/distance) = 0.076816499
  estimated absolute RMS force accuracy = 0.3386632
  estimated relative force accuracy = 0.0010198742
  KSpace vectors: actual max1d max3d = 3 1 13
                  kxmax kymax kzmax  = 1 1 1
Generated 15 of 15 mixed pair_coeff terms from sixthpower/sixthpower mixing rule
Per MPI rank memory allocation (min/avg/max) = 14.5 | 14.86 | 15.19 Mbytes
   Step          Temp          Press         Enthalpy        Volume        Density    
         0   300           -38.84224       1094.6884      20714.626      1.0741864    
      2000   309.99155      1191.5173      1443.0677      20881.084      1.0656233    
      4000   293.55977     -730.001        814.64807      21000.171      1.0595805    
      6000   302.04112      1159.4454      1459.2979      21099.354      1.0545996    
      8000   289.69681     -433.77538      876.51621      21333.327      1.0430333    
     10000   298.65396     -1437.3333      662.58164      20689.454      1.0754933    
     12000   306.72994      1587.3616      1540.1887      20794.8        1.0700449    
     14000   299.93853     -1155.8981      744.55352      21022.064      1.058477     
     16000   292.36089     -145.15083      1012.2225      21113.511      1.0538925    
     18000   317.51315      2494.7244      1933.8877      20916.328      1.0638277    
     20000   298.18464     -2419.075       357.51337      20921.165      1.0635818    
     22000   307.06526      131.93137      1196.1226      21209.8        1.049108     
     24000   315.03605     -680.3669       989.26389      21338.535      1.0427787    
     26000   296.1027       505.0279       1237.8564      21250.146      1.0471161    
     28000   299.76477      832.73609      1309.2763      21169.776      1.0510914    
     30000   303.17673      764.63217      1391.8509      20760.756      1.0717996    
     32000   303.38317     -55.345911      1110.5847      21503.62       1.0347732    
     34000   292.61109     -325.04603      934.8433       20987.622      1.060214     
     36000   306.75422      1210.7245      1456.3858      21022.154      1.0584724    
     38000   316.29938     -2112.3062      552.71765      20721.998      1.0738043    
     40000   297.42325      672.26176      1330.7182      20913.078      1.0639931    
     42000   313.26374      1809.3079      1700.6117      20782.07       1.0707004    
     44000   302.25557      81.555283      1185.0898      20841.877      1.067628     
     46000   295.19849     -1782.9864      527.21861      20795.694      1.0699989    
     48000   305.27094     -105.11129      1032.1439      20685.79       1.0756838    
     50000   307.73195      750.90759      1324.0048      20855.743      1.0669181    
     52000   305.00613     -245.07254      1074.4546      20597.975      1.0802698    
     54000   300.86113     -7.9052627      1112.0911      20809.797      1.0692738    
     56000   302.49362      1542.8037      1551.2967      20932.876      1.0629868    
     58000   294.61622     -2153.3481      444.00725      20809.248      1.069302     
     60000   300.39001      989.80205      1348.5725      20878.708      1.0657446    
     62000   297.44856      1104.5765      1356.9349      20530.019      1.0838456    
     64000   295.89531     -458.02361      942.77024      20557.726      1.0823848    
     66000   304.79265      2937.7653      1968.8015      20817.741      1.0688657    
     68000   308.48526     -2242.5702      441.41801      20818.333      1.0688353    
     70000   294.59416      676.00135      1260.8031      20556.653      1.0824413    
     72000   291.16123      163.07101      1091.7284      21097.794      1.0546776    
     74000   299.75826     -491.06623      922.29485      20866.725      1.0663566    
     76000   304.7261      -2764.3873      193.44963      21099.492      1.0545927    
     78000   293.30134      169.77726      1048.7307      20606.918      1.079801     
     80000   309.69015     -377.05495      1045.2475      20712.591      1.074292     
     82000   304.66343      694.74617      1360.3377      20785.284      1.0705348    
     84000   296.29539     -359.63428      963.07424      20823.785      1.0685555    
     86000   295.69509      7.0102895      1036.1998      20985.636      1.0603143    
     88000   298.02722      2115.8818      1740.4215      20697.368      1.0750821    
     90000   284.32802      703.71593      1265.7071      21078.235      1.0556563    
     92000   297.07591      665.96087      1243.9033      21505.796      1.0346685    
     94000   287.76763      1121.8428      1342.6945      21154.306      1.0518601    
     96000   294.20702     -796.44936      890.32521      21546.163      1.03273      
     98000   300.95532      1921.2383      1745.6162      21087.774      1.0551787    
    100000   302.39809      31.742599      1142.5045      21111.019      1.0540169    
    102000   293.34443      1685.5801      1569.0919      20976.618      1.0607701    
    104000   306.55121     -647.29355      849.55426      21093.577      1.0548884    
    106000   284.57591     -2227.6695      339.97565      21404.365      1.0395716    
    108000   294.61591     -1140.7543      709.50039      21034.421      1.0578551    
    110000   305.63623     -1802.0181      552.64244      21258.216      1.0467186    
    112000   295.70011     -855.91139      763.24431      20595.296      1.0804103    
    114000   292.85009     -1945.9562      415.30967      20951.492      1.0620423    
    116000   299.30559     -452.7055       899.49627      20640.402      1.0780493    
    118000   300.47786      1249.6728      1494.9163      20723.855      1.0737081    
    120000   300.06716      1424.4481      1524.4564      20337.368      1.0941126    
    122000   292.95113     -316.70614      988.77208      20851.47       1.0671368    
    124000   298.78839     -639.4635       887.39028      20930.142      1.0631256    
    126000   305.20165     -1150.1343      722.63197      20619.795      1.0791266    
    128000   287.18397     -2033.1816      406.08338      20556.923      1.0824271    
    130000   293.14894     -201.19396      999.1317       20341.082      1.0939128    
    132000   296.62264     -1139.2498      715.27088      21084.077      1.0553637    
    134000   292.73665      114.08789      1133.0264      20718.891      1.0739653    
    136000   295.95494      291.72238      1192.8397      20758.21       1.0719311    
    138000   298.79304      84.398403      1068.9669      20614.47       1.0794054    
    140000   299.09902     -272.50415      988.80326      20987.957      1.0601971    
    142000   302.46807     -1015.5773      732.17498      20605.89       1.0798549    
    144000   292.75749      1384.4791      1440.3383      20656.856      1.0771906    
    146000   304.63267     -2508.2361      307.15007      20315.992      1.0952638    
    148000   293.84505     -60.071939      1022.5348      20357.778      1.0930156    
    150000   289.55697      300.56732      1110.6656      20637.117      1.0782209    
    152000   300.40602      573.9491       1243.7767      21248.582      1.0471932    
    154000   300.01116     -0.14252335     1127.9697      20737.463      1.0730035    
    156000   295.42159      890.19422      1381.0512      20834.301      1.0680162    
    158000   294.22994     -346.91634      1029.4194      20929.942      1.0631358    
    160000   303.66553     -379.64056      899.08336      20623.983      1.0789075    
    162000   300.48636      1461.7057      1574.3677      20723.888      1.0737064    
    164000   292.51031     -2573.137       239.78583      20893.48       1.0649911    
    166000   293.5146      -1252.7064      656.24939      21292.13       1.0450514    
    168000   316.7235       767.26747      1416.6324      21401.577      1.039707     
    170000   304.29133      300.79547      1239.2006      20778.781      1.0708699    
    172000   310.94974     -183.56551      1116.9328      20627.844      1.0787056    
    174000   303.52583     -187.86883      1053.0994      20667.17       1.076653     
    176000   293.80273     -550.09313      849.19586      20696.149      1.0751455    
    178000   286.01927      801.65945      1279.1156      20908.221      1.0642402    
    180000   301.65324      1541.64        1630.0171      20840.279      1.0677098    
    182000   285.79888      205.132        1104.4263      21326.686      1.0433581    
    184000   293.5988       248.35775      1041.1554      20504.206      1.0852101    
    186000   307.35043      599.17958      1327.4606      20727.829      1.0735022    
    188000   297.12313     -1491.4139      636.07618      20981.048      1.0605462    
    190000   313.81496      1229.096       1580.7881      20712.192      1.0743127    
    192000   305.95902     -1924.566       537.59639      20700.32       1.0749288    
    194000   299.60168      20.837061      1066.1742      20689.841      1.0754732    
    196000   309.08482      1789.5588      1689.625       20579.808      1.0812234    
    198000   304.25596     -33.983767      1114.7623      20684.056      1.075774     
    200000   300.25633      193.16478      1124.7604      20815.843      1.0689632    
    202000   302.00674      36.386418      1100.7668      20438.518      1.0886979    
    204000   293.8419       515.45205      1205.7742      20699.246      1.0749846    
    206000   303.74636      3625.7206      2155.3076      20676.145      1.0761856    
    208000   299.50868      673.25923      1302.9811      21092.845      1.054925     
    210000   305.59113     -59.170157      1038.8524      21120.362      1.0535506    
    212000   291.5028       619.21825      1216.156       20534.642      1.0836016    
    214000   297.55174      284.64314      1164.7931      21226.24       1.0482954    
    216000   285.81209     -411.84575      865.31321      20992.226      1.0599815    
    218000   293.06926      1500.2626      1511.4393      20684.534      1.0757492    
    220000   305.90576      937.78248      1391.3059      20726.025      1.0735957    
    222000   310.51221      602.66982      1339.007       20553.503      1.0826072    
    224000   297.29638     -2621.8003      346.63087      21093.182      1.0549082    
    226000   295.03721     -548.13427      901.39199      21164.395      1.0513587    
    228000   302.24679      768.89459      1339.0711      21054.286      1.0568571    
    230000   307.35877     -800.52728      907.0902       21101.923      1.0544712    
    232000   300.3233      -116.557        1064.1224      20932.732      1.0629941    
    234000   292.98721     -176.76964      983.18423      20779.154      1.0708506    
    236000   305.17023      1541.2733      1559.5301      20632.394      1.0784677    
    238000   299.88855     -777.18553      830.55924      21147.263      1.0522104    
    240000   300.48507     -893.02217      822.17968      20899.436      1.0646876    
    242000   290.23634      990.68792      1312.601       21216.222      1.0487904    
    244000   307.99944     -2240.4657      468.07325      20996.948      1.0597431    
    246000   294.49125      42.9096        1082.2707      21447.013      1.0375044    
    248000   297.24363     -2094.4979      399.71036      21155.8        1.0517858    
    250000   297.72756      2137.551       1732.5725      21232.903      1.0479665    
    252000   305.58495     -903.42621      834.64629      21101.739      1.0544804    
    254000   299.36025     -78.619638      1072.4959      21482.552      1.035788     
    256000   293.72143     -2013.944       437.29892      20938.376      1.0627075    
    258000   302.07089      2528.6762      1870.2412      20830.015      1.0682359    
    260000   295.22798     -719.10512      807.14843      20555.996      1.0824759    
    262000   300.43408     -351.7445       1016.8259      21264.585      1.0464051    
    264000   306.80223     -1419.8146      717.78629      21092.437      1.0549454    
    266000   300.63642     -831.52489      845.28146      21172.411      1.0509606    
    268000   289.80675     -730.0408       868.7291       21255.861      1.0468346    
    270000   298.47752     -1528.449       634.55398      20959.533      1.0616348    
    272000   291.04764     -597.93819      886.23667      20651.857      1.0774513    
    274000   291.4035       1790.7448      1605.6287      20973.583      1.0609237    
    276000   289.75327     -838.11089      778.1644       21134.494      1.0528461    
    278000   298.25513      1420.0715      1572.9916      20921.594      1.06356      
    280000   309.79787      2208.4124      1773.4273      20752.703      1.0722155    
    282000   289.13223      1182.6526      1386.5071      20618.434      1.0791979    
    284000   301.26922      634.81622      1234.1174      20905.956      1.0643555    
    286000   308.0136      -596.98096      918.21171      20851.911      1.0671142    
    288000   296.76447      855.01497      1316.035       21038.579      1.0576461    
    290000   296.77342      1116.2278      1408.8865      20935.725      1.0628421    
    292000   287.64851     -2122.2608      357.34133      21427.14       1.0384667    
    294000   308.04734      857.2091       1415.4885      21168.16       1.0511717    
    296000   295.26127     -292.30474      1034.779       20805.265      1.0695067    
    298000   297.28206      166.32484      1106.1605      21066.387      1.0562499    
    300000   305.31804      1069.6308      1461.7374      21005.631      1.059305     
    302000   308.96354     -872.19127      841.06746      21073.617      1.0558876    
    304000   305.98491     -172.98072      1019.3689      21272.453      1.0460181    
    306000   294.64615      485.87101      1115.9436      20722.572      1.0737745    
    308000   298.92247      678.89889      1292.5341      20758.994      1.0718906    
    310000   301.90783      1692.8718      1589.3464      20844.286      1.0675046    
    312000   289.93025     -2511.4614      265.13762      21271.347      1.0460725    
[...]
     82000   913.5601      -251.03454      7093.9339      37241.656      0.59748606   
     84000   914.69641     -1579.1305      6380.9179      34858.977      0.63832539   
     86000   877.35008      1515.0093      7784.8343      33858.131      0.65719429   
     88000   923.59764      2059.0954      8119.5826      30691.456      0.72500211   
     90000   863.33915     -324.70797      6749.6222      31847.654      0.69868161   
     92000   915.54265      35.426198      7284.4421      33636.925      0.66151619   
     94000   894.56699      939.02684      7568.8059      30928.625      0.7194426    
     96000   862.85166     -1364.0415      6288.1805      32620.059      0.68213764   
     98000   932.63441     -1029.4735      6780.5265      34872.54       0.63807714   
    100000   897.29154      6.525993       7286.659       35972.272      0.61857006   
    102000   935.37517      259.12939      7413.1499      35073.209      0.63442641   
    104000   865.49474     -531.85229      6699.7901      36208.034      0.61454235   
    106000   932.74854     -311.74868      7133.9578      33215.531      0.66990861   
    108000   868.82773      604.72299      7033.2407      31257.369      0.71187599   
    110000   918.04014      108.30287      7198.05        29839.91       0.74569161   
    112000   907.44388      2224.5263      8179.8509      32241.784      0.69014079   
    114000   896.74576     -673.4272       6735.5849      32323.244      0.68840152   
    116000   920.36965     -1925.8729      6253.6785      31903.074      0.69746792   
    118000   873.81598     -653.1239       6669.4931      33321.506      0.66777804   
    120000   899.62667     -602.38214      6805.9879      32482.611      0.68502408   
    122000   891.63094      1533.8784      8010.9246      34330.963      0.64814291   
    124000   902.55944      317.88291      7249.1204      34294.585      0.64883044   
    126000   910.44667      3108.9598      8756.808       33995.237      0.65454376   
    128000   905.52813      426.93818      7389.1507      36200.815      0.61466491   
    130000   912.01645      741.11255      7565.5117      32500.404      0.68464904   
    132000   925.78237      1142.9268      7816.5347      34047.287      0.65354313   
    134000   878.87863     -1231.0617      6533.1916      31675.954      0.70246884   
    136000   873.28069     -2437.1165      5717.6756      32457.698      0.68554986   
    138000   889.78989     -1441.9224      6451.9658      30439.868      0.73099432   
    140000   870.76543      1384.1507      7531.1653      32775.868      0.67889493   
    142000   895.36878      1435.273       7748.6191      34218.269      0.65027749   
    144000   913.06369      845.10197      7484.5776      33077.78       0.67269842   
    146000   917.44922     -1618.2202      6489.0648      31247.656      0.71209726   
    148000   872.19855     -1110.611       6584.3716      31585.707      0.70447594   
    150000   885.20688     -1528.3731      6326.0418      31631.596      0.70345393   
    152000   926.04139     -1372.04        6608.3496      30636.772      0.72629617   
    154000   895.4278       1228.4625      7425.1595      32175.843      0.69155516   
    156000   899.18838     -960.2586       6730.2772      35406.591      0.62845277   
    158000   896.34276     -1484.4227      6385.5324      32036.465      0.69456384   
    160000   921.04431     -1073.0607      6802.0189      31822.368      0.69923679   
    162000   881.08316     -132.46387      6963.5295      31117.274      0.71508097   
    164000   915.65122     -32.359936      7211.7983      34294.392      0.64883407   
    166000   878.2342       117.70275      6977.7281      30936.048      0.71926997   
    168000   889.36475     -529.33157      6665.6992      32116.301      0.69283728   
    170000   918.84384      461.63492      7346.2953      33117.083      0.67190007   
    172000   911.48436      2135.5493      8108.7058      31683.154      0.7023092    
    174000   940.46417      482.80456      7604.575       32600.721      0.68254227   
    176000   884.29608     -266.35398      6837.4219      33034.353      0.67358275   
    178000   922.91897     -2586.1106      6045.8993      31644.603      0.70316478   
    180000   916.28646      563.13667      7569.0848      32914.884      0.6760276    
    182000   864.92828     -1662.6221      6096.7645      31805.117      0.69961605   
    184000   889.31585     -1275.9237      6440.8285      31061.233      0.71637113   
    186000   913.07003      319.35044      7270.7185      32807.85       0.67823312   
    188000   885.31902     -1299.9133      6447.0959      32458.927      0.6855239    
    190000   901.72809     -1439.6455      6421.2108      34699.329      0.64126227   
    192000   911.34001     -1417.1513      6430.5431      35251.903      0.63121047   
    194000   856.61637     -561.10687      6721.5861      37298.529      0.59657502   
    196000   885.24118     -2194.6846      6011.8862      34704.674      0.64116351   
    198000   909.0799       938.0079       7570.7736      33163.744      0.67095472   
    200000   868.22382     -1590.1122      6072.7819      30198.045      0.73684805   
    202000   887.37582     -1463.5218      6424.2459      30505.134      0.72943033   
    204000   898.48411      468.63258      7295.564       30567.36       0.72794543   
    206000   898.46028     -518.7856       6930.6673      32901.335      0.67630599   
    208000   905.61135      1408.4025      7917.6825      34426.278      0.64634843   
    210000   892.76099     -2940.1207      5513.5876      34776.746      0.63983474   
    212000   877.87018      1556.9851      7749.0964      34130.26       0.65195433   
    214000   893.55821     -1622.063       6196.3784      33855.221      0.65725077   
    216000   893.41916      1018.4395      7467.8636      31959.571      0.69623495   
    218000   899.65999      449.94153      7343.3158      33458.358      0.66504669   
    220000   900.3766      -705.53833      6642.3357      36600.484      0.6079529    
    222000   904.58881     -2208.1572      5938.4018      34146.079      0.65165228   
    224000   908.3806       920.61951      7442.8414      32212.857      0.69076053   
    226000   908.75806     -994.35614      6744.4525      34191.409      0.65078835   
    228000   924.3535      -2339.2217      6111.0906      32852.405      0.67731328   
    230000   926.33525      2879.1966      8655.3345      33029.788      0.67367585   
    232000   893.83954      628.58019      7433.8786      32704.712      0.680372     
    234000   879.35771     -1992.45        6009.4816      34361.528      0.64756639   
    236000   913.56637      1342.7644      7885.6157      34489.739      0.64515913   
    238000   885.42394     -1739.8863      6255.8839      34907.787      0.63743285   
    240000   878.89211      1319.6918      7844.2084      37117.352      0.59948701   
    242000   872.95224     -2274.7759      5721.7742      35944.582      0.61904657   
    244000   904.63904     -1321.8241      6591.5743      34309.859      0.64854159   
    246000   900.17305     -1346.6687      6292.73        34542.245      0.64417847   
    248000   885.24822      38.075168      7206.7916      37833.482      0.58813964   
    250000   886.41916      48.003001      7191.8916      36084.468      0.61664675   
    252000   904.27518      33.564743      7234.4033      34294.2        0.64883772   
    254000   851.52567      2142.9279      8097.883       34937.91       0.63688327   
    256000   938.82382     -589.16711      7074.8361      35458.323      0.62753589   
    258000   891.02407     -1372.7919      6538.834       33980.742      0.65482297   
    260000   892.32116      2137.0951      8049.6979      33010.634      0.67406675   
    262000   891.23911     -622.13401      6851.3822      37272.773      0.59698725   
    264000   893.12485     -2618.9619      5840.9929      35786.681      0.62177798   
    266000   865.18916      237.75605      7158.7005      35757.984      0.62227699   
    268000   893.47187     -486.87113      6873.4667      34026.206      0.65394803   
    270000   890.69753     -56.927453      7069.1163      32373.16       0.68734008   
    272000   906.90479     -1322.8346      6535.8373      32385.182      0.68708493   
    274000   925.92585      1975.5217      8126.75        33303.267      0.66814377   
    276000   885.01199     -988.74204      6538.8672      31189.157      0.71343289   
    278000   895.07366     -1794.7381      6288.6481      32987.173      0.67454615   
    280000   885.28069     -434.89016      6795.3831      33460.21       0.66500989   
    282000   951.31283      956.33584      7942.4954      34443.461      0.64602598   
    284000   892.46031      305.6136       7197.9007      32231.694      0.69035684   
    286000   900.3339      -1944.679       6125.9749      32108.501      0.69300559   
    288000   907.86949      2468.2032      8158.3234      32382.343      0.68714516   
    290000   903.13531      1376.9511      7837.1835      32537.055      0.68387782   
    292000   902.50437     -302.74928      6956.0779      32679.393      0.68089914   
    294000   903.16552      2101.3053      8003.7423      34799.638      0.63941385   
    296000   911.42091      386.10303      7513.8054      35165.725      0.63275733   
    298000   937.45827     -809.92252      7081.0763      33583.216      0.66257414   
    300000   877.83512     -538.11584      6586.588       31212.992      0.71288809   
    302000   896.41801      1783.3239      7965.0748      32429.133      0.68615372   
    304000   913.80468     -130.71698      7142.0933      33631.347      0.66162591   
    306000   883.55536     -78.094591      6924.5705      30530.396      0.72882679   
    308000   970.59437      553.55392      7788.6138      32912.155      0.67608366   
    310000   889.43882      1964.5872      8042.8353      34916.016      0.63728263   
    312000   927.27561      636.28016      7427.0904      33839.207      0.65756181   
    314000   918.43114     -379.28126      7104.6402      31835.509      0.69894815   
    316000   896.3894      -212.86303      6916.7393      32547.207      0.68366451   
    318000   889.59834     -890.72426      6695.6068      35739.487      0.62259904   
    320000   909.47104      951.8426       7725.2165      37129.244      0.59929499   
    322000   918.34047     -569.41903      6851.8104      33360.584      0.66699584   
    324000   917.25409     -680.74695      6731.6652      33453.487      0.66514353   
    326000   873.49278     -145.74725      6969.4515      37931.645      0.5866176    
    328000   910.58563     -327.69093      6869.262       36910.427      0.60284782   
    330000   903.09625      2293.1494      8300.1015      35124.791      0.63349474   
    332000   909.534        992.25859      7519.0977      31723.44       0.70141733   
    334000   910.09451     -933.21418      6780.5358      33688.532      0.66050282   
    336000   914.17963      1447.5773      7833.9013      32931.845      0.67567944   
    338000   892.56259      612.03393      7313.5501      30475.673      0.73013548   
    340000   911.56564     -2184.3227      6110.5705      33675.119      0.66076589   
    342000   896.70527      85.668165      7086.9613      31399.298      0.70865822   
    344000   925.86188     -1555.1993      6602.863       32553.251      0.68353758   
    346000   919.22515      19.967697      7131.0525      31947.877      0.69648979   
    348000   910.47852      1036.4483      7517.1563      29340.068      0.75839532   
    350000   872.85908     -1161.6814      6287.6396      32165.345      0.69178087   
    352000   909.00057      771.97755      7428.5046      30501.189      0.7295247    
    354000   916.61342     -1872.7642      6197.5989      32230.953      0.69037271   
    356000   906.05394     -652.88067      6885.1279      34301.501      0.64869962   
    358000   918.20693      1496.5646      8088.825       34844.149      0.63859704   
    360000   849.99693     -2036.5927      6015.7292      31224.707      0.71262064   
    362000   927.38273     -1069.4378      6711.5006      33781.749      0.65868024   
    364000   858.34518      1804.2849      7769.0651      32188.303      0.69128745   
    366000   923.3053      -201.83854      7071.9601      35261.321      0.63104189   
    368000   937.0308       660.22072      7640.2833      32398.613      0.6868001    
    370000   901.40643      2456.5944      8284.4065      31470.881      0.70704631   
    372000   899.65065      741.36052      7566.5919      34456.442      0.64578258   
    374000   917.61226      850.82033      7524.0955      37236.5        0.59756879   
    376000   912.12719      1258.0042      7857.2659      35746.279      0.62248075   
    378000   897.36247      905.59088      7611.7664      34035.312      0.65377307   
    380000   905.83047     -360.34722      7052.5907      33131.612      0.67160543   
    382000   891.90777      467.38237      7305.807       35993.431      0.61820643   
    384000   911.31509     -915.59423      6646.4262      34213.881      0.6503609    
    386000   917.38956     -722.45692      6868.4651      34430.897      0.64626171   
    388000   886.87079     -903.53036      6579.7422      33933.988      0.65572518   
    390000   913.84337      1251.8874      7805.4661      32141.152      0.69230157   
    392000   881.25937     -1193.769       6401.0049      35621.992      0.62465261   
    394000   904.42661      281.44651      7396.9292      38523.979      0.57759793   
    396000   890.50591     -1188.6221      6560.8104      34458.939      0.6457358    
    398000   925.41596     -1546.3772      6459.279       34860.997      0.63828842   
    400000   902.34137      361.54299      7147.7379      31694.558      0.70205649   
    402000   906.67735     -1374.3381      6433.3519      34160.314      0.65138073   
    404000   912.83085     -2148.3952      6251.9154      33053.527      0.67319201   
    406000   900.41258      418.2585       7295.3597      34929.818      0.6370308    
    408000   884.20521      775.99569      7369.4446      34629.46       0.64255609   
    410000   904.93543      4818.2042      9726.2248      35170.163      0.63267748   
    412000   898.65984     -1313.1069      6417.2391      37755.152      0.58935984   
    414000   903.48252     -615.74287      6898.0921      34919.749      0.6372145    
    416000   904.29415     -182.80066      7109.015       34650.139      0.64217262   
    418000   897.71719     -2018.584       6143.8881      31946.67       0.69651612   
    420000   904.4572       1079.702       7628.9218      32309.439      0.68869567   
    422000   895.11825     -471.95949      6853.0239      34850.155      0.63848699   
    424000   910.67303      991.85104      7670.6825      37956.468      0.58623396   
    426000   894.74446     -904.16021      6692.603       36560.543      0.60861707   
    428000   921.72587      1661.8902      7976.5196      33746.587      0.65936654   
    430000   916.87915     -756.64146      6834.1324      33386.422      0.66647963   
    432000   874.16672     -947.05191      6628.2975      35958.217      0.61881183   
    434000   886.53681     -1390.4631      6422.0043      36146.696      0.61558518   
    436000   894.8085      -1895.0505      6239.2161      37484.497      0.59361529   
    438000   903.894        1445.3552      7797.9687      36780.371      0.6049795    
    440000   888.7819       339.857        7335.131       38931.014      0.57155897   
    442000   930.57246     -74.890507      7244.7922      39753.524      0.55973328   
    444000   897.7622       1221.2447      7675.7599      36083.829      0.61665769   
    446000   923.04701      439.26132      7421.9648      34418.422      0.64649595   
    448000   889.91679      1450.9853      7806.7236      36641.264      0.60727628   
    450000   903.46509      1508.4113      7895.7772      34916.45       0.6372747    
    452000   868.96238      1042.0903      7581.6905      36098.26       0.61641116   
    454000   911.54737     -195.50974      7134.1272      34584.473      0.64339191   
    456000   908.18023      617.2039       7626.1373      38172.07       0.58292282   
    458000   898.46824     -62.894956      7082.505       36299.047      0.61300151   
    460000   859.32462      715.07224      7357.5397      34519.634      0.64460041   
    462000   887.05556      3197.9468      8482.6902      31117.613      0.71507317   
    464000   897.02503     -74.171524      7002.245       33160.795      0.67101439   
    466000   918.69912     -2543.1395      5834.1336      36045.294      0.61731694   
    468000   899.99721     -213.24364      6965.304       33561.348      0.66300585   
    470000   904.21983     -811.54103      6762.4617      32402.305      0.68672184   
    472000   916.86293     -582.82488      6799.7708      33463.638      0.66494177   
    474000   929.72235      755.48289      7559.2066      32339.965      0.68804559   
    476000   913.47701      685.73781      7556.2658      34383.53       0.64715201   
    478000   862.67097      225.04465      7055.3005      32860.48       0.67714685   
    480000   926.31436      167.15699      7285.3382      33512.081      0.66398055   
    482000   899.55518      3263.917       8656.0173      33131.21       0.67161358   
    484000   875.37094     -141.50093      6903.5208      33687.136      0.66053019   
    486000   927.63955      3095.2725      8795.7639      32992.793      0.67443124   
    488000   912.72287     -785.38924      6836.3052      34408.572      0.64668102   
    490000   892.28036      460.43147      7317.3795      33066.095      0.67293614   
    492000   900.96861     -10.17167       7089.483       32556.051      0.68347879   
    494000   892.97661     -3476.8765      5304.2852      33770.313      0.65890329   
    496000   905.30077      3291.1006      8673.6083      33503.565      0.66414933   
    498000   901.58913     -85.675485      7030.6862      34279.681      0.64911252   
    500000   907.07884      611.402        7346.8947      32119.31       0.69277236   
Loop time of 191.092 on 32 procs for 500000 steps with 1566 atoms

Performance: 226.070 ns/day, 0.106 hours/ns, 2616.547 timesteps/s, 4.098 Matom-step/s
100.0% CPU use with 32 MPI tasks x no OpenMP threads

MPI task timing breakdown:
Section |  min time  |  avg time  |  max time  |%varavg| %total
---------------------------------------------------------------
Pair    | 53.999     | 59.942     | 64.513     |  27.5 | 31.37
Bond    | 24.116     | 28.764     | 31.641     |  36.4 | 15.05
Kspace  | 47.106     | 54.694     | 62.824     |  47.7 | 28.62
Neigh   | 16.786     | 16.83      | 16.868     |   0.6 |  8.81
Comm    | 23.812     | 24.218     | 24.585     |   4.5 | 12.67
Output  | 0.0038639  | 0.0046743  | 0.02882    |   6.3 |  0.00
Modify  | 4.9192     | 5.0998     | 5.2413     |   3.4 |  2.67
Other   |            | 1.539      |            |       |  0.81

Nlocal:        48.9375 ave          71 max          34 min
Histogram: 5 3 5 4 4 3 2 3 1 2
Nghost:        2777.84 ave        2872 max        2689 min
Histogram: 1 3 3 4 6 4 3 6 1 1
Neighs:        13755.4 ave       21056 max        7835 min
Histogram: 3 2 4 6 4 3 4 3 2 1

Total # of neighbors = 440173
Ave neighs/atom = 281.0811
Ave special neighs/atom = 5.5977011
Neighbor list builds = 41839
Dangerous builds = 0

variable H equal enthalpy
variable V equal vol
print "${T} ${H} ${V}" append H_T.dat
900 7346.89465287115 32119.3100164933

unfix NPT

variable T equal ${T}+${dT}
variable T equal 900+${dT}
variable T equal 900+10
jump SELF loop_T
if "${T} > ${T_end}" then "jump SELF end_loop"
jump SELF end_loop

print "Heating scan finished."
Heating scan finished.
Total wall time: 3:25:28
