LAMMPS (22 Jul 2025)
units           real
atom_style      full
boundary        p p p

# Force field settings
pair_style      lj/cut 10.0
bond_style      harmonic
angle_style     harmonic
dihedral_style  hybrid charmm fourier
improper_style  cvff

read_data       lammps.txt
Reading data file ...
  orthogonal box = (0 0 0) to (46.184 46.184 46.184)
  2 by 4 by 4 MPI processor grid
WARNING: Pair style Atom-ID	Epsilon(kcal/mol)	Sigma(Å)	AtomName in data file differs from currently defined pair style lj/cut (../read_data.cpp:811)
WARNING: Atom style in data file Atom-ID	Molecule-ID	Atom-type	Charge	x	y	z	nx	ny	nz differs from currently defined atom style full (../read_data.cpp:727)
  reading atoms ...
  5886 atoms
  reading velocities ...
  5886 velocities
  scanning bonds ...
  3 = max bonds/atom
  scanning angles ...
  6 = max angles/atom
  scanning dihedrals ...
  8 = max dihedrals/atom
  scanning impropers ...
  1 = max impropers/atom
  orthogonal box = (0 0 0) to (46.184 46.184 46.184)
  2 by 4 by 4 MPI processor grid
  reading bonds ...
  6303 bonds
  reading angles ...
  10260 angles
  reading dihedrals ...
  15348 dihedrals
  reading impropers ...
  300 impropers
Finding 1-2 1-3 1-4 neighbors ...
  special bond factors lj:    0        0        0       
  special bond factors coul:  0        0        0       
     4 = max # of 1-2 neighbors
     7 = max # of 1-3 neighbors
    13 = max # of 1-4 neighbors
    16 = max # of special neighbors
  special bonds CPU = 0.003 seconds
  read_data CPU = 0.127 seconds

minimize        1e-6 1e-6 2000 20000
Generated 28 of 28 mixed pair_coeff terms from geometric mixing rule
Neighbor list info ...
  update: every = 1 steps, delay = 0 steps, check = yes
  max neighbors/atom: 2000, page size: 100000
  master list distance cutoff = 12
  ghost atom cutoff = 12
  binsize = 6, bins = 8 8 8
  1 neighbor lists, perpetual/occasional/extra = 1 0 0
  (1) pair lj/cut, perpetual
      attributes: half, newton on
      pair build: half/bin/newton
      stencil: half/bin/3d
      bin: standard
Per MPI rank memory allocation (min/avg/max) = 13.05 | 13.1 | 13.14 Mbytes
   Step          Temp          E_pair         E_mol          TotEng         Press     
         0   0             -2578.6101      37687.043      35108.433     -58662.834    
      2000   0             -3404.4085      28812.196      25407.788     -866.20622    
Loop time of 3.15317 on 32 procs for 2000 steps with 5886 atoms

98.8% CPU use with 32 MPI tasks x no OpenMP threads

Minimization stats:
  Stopping criterion = max iterations
  Energy initial, next-to-last, final = 
      35108.4326345257   25407.9315941536   25407.7878209223
  Force two-norm initial, final = 3110.5058 16.178571
  Force max component initial, final = 142.57355 3.6461559
  Final line search alpha, max atom move = 0.0066370772 0.024199818
  Iterations, force evaluations = 2000 4000

MPI task timing breakdown:
Section |  min time  |  avg time  |  max time  |%varavg| %total
---------------------------------------------------------------
Pair    | 0.42562    | 1.4662     | 2.4469     |  48.6 | 46.50
Bond    | 0.041157   | 0.11541    | 0.16906    |  10.2 |  3.66
Neigh   | 0.10066    | 0.10224    | 0.10366    |   0.4 |  3.24
Comm    | 0.35748    | 1.3667     | 2.4556     |  52.6 | 43.34
Output  | 0.00023751 | 0.0002425  | 0.00037343 |   0.0 |  0.01
Modify  | 0          | 0          | 0          |   0.0 |  0.00
Other   |            | 0.1024     |            |       |  3.25

Nlocal:        183.938 ave         269 max          55 min
Histogram: 3 3 1 0 2 4 2 8 3 6
Nghost:        3368.16 ave        3737 max        2909 min
Histogram: 3 1 0 4 8 2 2 6 1 5
Neighs:        43223.1 ave       74606 max        8489 min
Histogram: 6 1 0 3 3 3 8 1 6 1

Total # of neighbors = 1383139
Ave neighs/atom = 234.98794
Ave special neighs/atom = 10.414883
Neighbor list builds = 59
Dangerous builds = 0


# ============================================
# Low-temperature equilibration (solid state)
# ============================================

timestep 1.0

velocity all create 300.0 928374 dist gaussian mom yes rot yes

fix EQ all npt temp 300.0 300.0 100.0 iso 1.0 1.0 1000.0

thermo_style custom step temp press pe etotal enthalpy vol density
thermo 1000

run 500000     # 500 ps
Generated 28 of 28 mixed pair_coeff terms from geometric mixing rule
Per MPI rank memory allocation (min/avg/max) = 11.93 | 12.02 | 12.47 Mbytes
   Step          Temp          Press          PotEng         TotEng        Enthalpy        Volume        Density    
      2000   300            1575.8758      25407.788      30670.408      32934.388      98508.71       0.79997671   
      3000   305.11037     -1192.5876      30899.839      36252.106      34628.609      93343.741      0.84424165   
      4000   298.97256      655.4223       30622          35866.596      36700.18       87207.104      0.9036497    
      5000   293.4223      -532.72488      30528.733      35675.967      35024.368      83869.059      0.93961557   
      6000   303.01533     -1030.8007      30506.573      35822.088      34595.084      81619.782      0.96550948   
      7000   303.28958      121.06966      30386.786      35707.112      35848.71       80194.855      0.98266495   
      8000   298.67506     -554.94792      30378.12       35617.498      34981.938      78528.752      1.0035136    
      9000   305.76169      432.12699      30287.553      35651.245      36137.158      77102.929      1.0220711    
     10000   301.99406      498.54585      30232.305      35529.905      36083.215      76100.506      1.0355342    
     11000   296.086        537.75657      30348.073      35542.033      36135.185      75631.759      1.0419522    
     12000   305.2973      -756.90504      30158.661      35514.207      34696.257      74098.475      1.0635128    
     13000   301.99418     -374.83229      30251.155      35548.758      35149.652      73008.741      1.0793868    
     14000   304.55555     -683.39895      30099.628      35442.162      34709.913      73469.821      1.0726129    
     15000   304.69043     -357.25619      30080.313      35425.213      35049.954      72023.738      1.0941486    
     16000   304.15964      135.11362      30126.317      35461.906      35602.765      71484.257      1.102406     
     17000   301.32931      1530.8284      30109.593      35395.532      36965.249      70310.276      1.120813     
     18000   299.80181      265.07117      30051.761      35310.904      35582.913      70363.081      1.1199719    
     19000   298.84055      1317.5169      30009.862      35252.143      36587.361      69489.655      1.134049     
     20000   306.11532     -306.10518      30020.132      35390.027      35077.137      70088.282      1.124363     
     21000   299.22299      39.175782      30086.509      35335.499      35375.308      69677.937      1.1309846    
     22000   299.54239      143.61236      29986.312      35240.904      35386.983      69746.111      1.1298791    
     23000   304.79955     -162.60283      30019.385      35366.199      35202.712      68941.491      1.143066     
     24000   296.33771     -955.52799      30006.756      35205.132      34241.885      69122.354      1.1400751    
     25000   306.22114      95.121841      30035.568      35407.32       35502.122      68337.892      1.1531622    
     26000   304.55222      170.98608      29864.213      35206.689      35377.861      68642.982      1.1480369    
     27000   300.78909      1455.9783      29911.769      35188.231      36628.392      67823.504      1.161908     
     28000   299.37227     -1726.4364      29924.028      35175.637      33452.264      68446.713      1.1513288    
     29000   299.09881     -766.95078      29863.792      35110.603      34346.92       68276.259      1.1542032    
     30000   298.4055       160.24719      30026.766      35261.415      35420.634      68128.549      1.1567056    
     31000   295.46625      203.84244      29935.691      35118.78       35320.439      67833.952      1.1617291    
     32000   301.38903      1313.6706      29952.872      35239.859      36539.249      67823.043      1.1619159    
     33000   298.49624      135.69406      29922.022      35158.263      35291.982      67570.47       1.1662591    
     34000   291.47675     -1036.3367      29918.286      35031.39       34000.685      68195.806      1.1555648    
     35000   299.53694     -148.74188      29852.08       35106.577      34960.062      67542.193      1.1667473    
     36000   297.00152     -392.25481      29970.154      35180.175      34791.684      67910.466      1.1604202    
     37000   301.52436     -380.99091      29974.869      35264.23       34892.009      66989.902      1.1763665    
     38000   295.22674     -544.39153      29900.903      35079.79       34548.656      66898.612      1.1779717    
     39000   300.7583      -1730.1682      29901.916      35177.838      33498.024      66572.839      1.1837361    
     40000   301.65141     -402.39469      29893.634      35185.223      34793.645      66725.23       1.1810326    
     41000   302.90994     -808.32347      29910.196      35223.863      34436.938      66753.221      1.1805374    
     42000   303.40922      628.67491      29858.293      35180.718      35790.104      66464.633      1.1856633    
     43000   296.02471      760.63716      29889.762      35082.647      35812.742      65815.13       1.1973641    
     44000   301.51237      1064.1591      29726.502      35015.652      36042.357      66155.092      1.191211     
     45000   295.87286      442.67295      29856.2        35046.421      35474.149      66253.504      1.1894416    
     46000   300.29849      518.80519      29861.739      35129.596      35632.707      66494.178      1.1851364    
     47000   299.22844      14.214385      29921.865      35170.95       35184.624      65959.107      1.1947505    
     48000   301.09595     -21.284169      29930.568      35212.413      35191.898      66090.915      1.1923677    
     49000   295.75291     -960.95155      29919.711      35107.829      34182.793      66005.656      1.1939079    
     50000   305.85092      1597.9602      29879.392      35244.649      36782.267      65979.123      1.194388     
     51000   301.95449      557.72357      29847.437      35144.343      35681.749      66070.571      1.1927349    
     52000   297.80521     -544.15229      29822.462      35046.581      34517.883      66621.098      1.1828786    
     53000   301.95307      988.6004       29832.179      35129.06       36085.554      66341.497      1.187864     
     54000   296.59654      144.57485      29786.246      34989.162      35127.887      65793.892      1.1977506    
     55000   302.09298      117.87829      29872.19       35171.525      35284.382      65647.383      1.2004237    
     56000   302.82282     -173.72813      29930.482      35242.62       35073.916      66585.471      1.1835115    
     57000   297.98381      770.63106      29836.164      35063.416      35803.075      65812.602      1.1974101    
     58000   302.08844     -700.3792       29942.834      35242.09       34566.832      66109.032      1.192041     
     59000   302.50095     -80.03602       29844.547      35151.039      35074.421      65640.316      1.2005529    
     60000   298.81834      17.272027      29784.26       35026.151      35042.667      65566.738      1.2019002    
     61000   297.22832      177.35585      29746.851      34960.851      35129.163      65071.966      1.2110388    
     62000   302.47024      1388.3488      29784.706      35090.66       36408.771      65099.494      1.2105267    
     63000   298.95808      82.838612      29783.102      35027.444      35106.954      65812.958      1.1974036    
     64000   302.81097      1013.0145      29880.82       35192.75       36161.539      65574.836      1.2017517    
     65000   303.35578      661.6752       29829.555      35151.042      35780.676      65247.99       1.2077717    
     66000   295.1861      -657.3307       29900.923      35079.097      34449.035      65723.918      1.1990258    
     67000   298.11951     -749.87296      29633.913      34863.546      34150.334      65216.136      1.2083616    
     68000   303.3698       332.48136      29802.378      35124.112      35438.861      64911.402      1.2140344    
     69000   297.27891      790.0762       29734.931      34949.817      35699.143      65031.777      1.2117872    
     70000   304.59581      10.766323      29800.307      35143.547      35153.738      64898.861      1.214269     
     71000   298.34911     -1448.1797      29744.581      34978.241      33604.174      65059.339      1.2112738    
     72000   293.26405      528.6438       29737.934      34882.391      35382.572      64876.593      1.2146858    
     73000   300.90576      790.46988      29748.873      35027.382      35769.718      64393.038      1.2238074    
     74000   300.98273     -941.43587      29773.819      35053.678      34165.034      64723.417      1.2175605    
     75000   298.47158     -267.48476      29795.72       35031.528      34780.544      64338.527      1.2248442    
     76000   303.2955      -378.1165       29754.337      35074.767      34718.836      64545.29       1.2209206    
     77000   303.93862      958.49973      29872.527      35204.238      36110.57       64836.481      1.2154372    
     78000   305.72461     -200.04959      29784.575      35147.617      34959.669      64420.51       1.2232855    
     79000   298.83507      451.67341      29748.793      34990.978      35413.497      64142.51       1.2285873    
     80000   296.64928     -1008.6988      29704.772      34908.613      33953.118      64951.785      1.2132796    
     81000   303.019       -466.10813      29743.449      35059.028      34621.21       64406.8        1.2235459    
     82000   295.33399     -219.77043      29815.818      34996.586      34789.694      64550.301      1.2208258    
     83000   297.15118      1107.034       29636.46       34849.106      35885.659      64202.961      1.2274305    
     84000   298.6347      -71.56074       29868.163      35106.833      35039.75       64277.678      1.2260037    
     85000   295.59872      729.6165       29737.971      34923.384      35608.168      64355.094      1.2245289    
     86000   300.43541     -331.37425      29792.143      35062.401      34752.534      64118.149      1.2290541    
     87000   295.3336      -89.88041       29736.407      34917.168      34832.985      64222.263      1.2270616    
     88000   295.26829     -150.18587      29732.253      34911.87       34770.734      64436.69       1.2229783    
     89000   301.76377      599.61446      29715.622      35009.183      35567.25       63817.307      1.234848     
     90000   297.54789     -301.58392      29730.516      34950.121      34668.283      64078.923      1.2298065    
     91000   298.55112      975.92422      29698.765      34935.968      35846.434      63969.328      1.2319134    
     92000   300.12709     -337.76883      29736.741      35001.59       34687.391      63783.719      1.2354983    
     93000   291.9266      -427.97689      29652.482      34773.478      34372.116      64304.301      1.2254961    
     94000   302.52875     -489.48427      29646.227      34953.206      34496.27       64008.937      1.2311511    
     95000   302.26623      60.087778      29639.481      34941.856      34997.672      63694.134      1.237236     
     96000   303.04608     -686.20397      29786.681      35102.736      34459.673      64257.557      1.2263877    
     97000   304.93306      912.38573      29714.953      35064.11       35919.209      64263.161      1.2262807    
     98000   292.99983     -1393.3435      29700.904      34840.727      33543.894      63818.966      1.2348159    
     99000   302.50452      60.017014      29709.16       35015.714      35071.266      63467.357      1.2416568    
    100000   297.09575      1005.9987      29759.193      34970.867      35902.736      63515.794      1.2407099    
    101000   299.33089      9.1083071      29707.809      34958.692      34967.203      64071.741      1.2299443    
    102000   298.87017     -747.49832      29663.194      34905.994      34208.984      63937.145      1.2325335    
    103000   301.31553     -84.749293      29750.648      35036.345      34957.55       63750.445      1.2361431    
    104000   299.57186      990.09919      29588.29       34843.399      35765.994      63893.454      1.2333763    
    105000   303.23398     -1004.5498      29734.85       35054.201      34113.646      64200.226      1.2274828    
    106000   300.65952      326.44236      29797.146      35071.335      35378.89       64601.131      1.2198652    
    107000   300.2363       1941.6261      29686.553      34953.319      36764.896      63975.77       1.2317894    
    108000   296.87572      76.776299      29771.801      34979.615      35050.992      63746.775      1.2362143    
    109000   300.77894     -154.55358      29652.093      34928.378      34784.972      63622.78       1.2386235    
    110000   302.03861      123.92111      29742.368      35040.749      35157.07       64363.023      1.2243781    
    111000   301.55427      1049.9367      29692.264      34982.15       35956.647      63641.698      1.2382554    
    112000   298.94287     -84.308792      29675.743      34919.819      34841.44       63745.072      1.2362473    
    113000   303.88266     -229.625        29716.951      35047.681      34833.463      63967.812      1.2319426    
    114000   297.63241     -1532.2712      29773.207      34994.294      33554.942      64410.349      1.2234784    
    115000   296.28454     -83.405641      29790.21       34987.653      34909.422      64314.478      1.2253022    
    116000   300.09527      826.42196      29708.506      34972.797      35744.496      64028.069      1.2307832    
    117000   301.40714      688.83609      29711.827      34999.132      35644.878      64279.172      1.2259753    
    118000   298.41498     -780.94075      29738.663      34973.479      34241.82       64241.356      1.2266969    
    119000   303.96528     -234.77621      29778.57       35110.749      34890.167      64422.964      1.2232389    
    120000   299.15695     -1219.0532      29671.55       34919.381      33775.813      64322.594      1.2251476    
    121000   297.50217      654.78109      29802.217      35021.02       35636.06       64406.688      1.223548     
    122000   299.36566      347.40694      29771.755      35023.248      35348.95       64284.619      1.2258714    
    123000   305.91215      420.25469      29747.145      35113.477      35508.403      64435.927      1.2229928    
    124000   301.41934      73.59539       29774.62       35062.138      35131.156      64303.448      1.2255124    
    125000   301.19869      689.7205       29770.437      35054.085      35700.263      64239.656      1.2267294    
    126000   307.4864       2120.9248      29814.09       35208.037      37199.059      64368.742      1.2242693    
    127000   300.5687      -116.65933      29667.48       34940.076      34831.396      63878.742      1.2336604    
    128000   300.46642      93.214462      29810.726      35081.528      35168.928      64291.02       1.2257493    
    129000   299.77601      1109.4791      29674.99       34933.681      35971.366      64131.389      1.2288004    
    130000   299.20609     -55.328836      29632.642      34881.335      34829.818      63844.666      1.2343188    
    131000   302.4285       61.94581       29676.809      34982.03       35039.677      63810.215      1.2349852    
    132000   299.10224      27.063644      29660.553      34907.425      34932.818      64335.849      1.2248952    
    133000   302.18462      662.30836      29705.019      35005.962      35627.4        64337.126      1.2248709    
    134000   298.3563      -206.67058      29692.999      34926.785      34733.364      64172.487      1.2280134    
    135000   302.73745      176.70304      29774.906      35085.547      35251.041      64218.927      1.2271254    
    136000   299.36817      11.796808      29692.842      34944.378      34955.431      64244.509      1.2266367    
    137000   296.6618       476.2688       29682.062      34886.123      35331.035      64053.947      1.230286     
    138000   295.7075       279.26297      29756.146      34943.467      35204.83       64173.257      1.2279987    
    139000   304.24165      456.28644      29784.008      35121.035      35548.342      64213.466      1.2272297    
    140000   299.00839     -1413.9171      29795.716      35040.941      33722.457      63940.358      1.2324716    
    141000   299.72897      171.66132      29703.825      34961.691      35122.191      64110.134      1.2292078    
    142000   300.12053      1141.5417      29759.771      35024.506      36089.837      63990.739      1.2315012    
    143000   302.69337      1372.7009      29754.93       35064.798      36350.918      64243.574      1.2266546    
    144000   299.4444       2695.4355      29741.022      34993.896      37500.65       63768.605      1.2357911    
    145000   300.04419      1206.1272      29738.923      35002.318      36138.385      64585.481      1.2201608    
    146000   303.33723      335.03743      29769.683      35090.845      35403.331      63953.023      1.2322275    
    147000   293.21451      2006.8628      29755.279      34898.868      36778.94       64236.353      1.2267925    
    148000   294.2032      -747.5035       29805.198      34966.13       34269.136      63935.171      1.2325716    
    149000   301.06138     -136.01054      29787.249      35068.488      34941.236      64152.769      1.2283908    
    150000   299.37398     -1609.2726      29677.053      34928.692      33415.893      64457.817      1.2225775    
    151000   300.20595      180.91108      29769.05       35035.283      35203.982      63940.022      1.2324781    
    152000   303.77527     -846.30874      29739.268      35068.114      34281.483      63733.33       1.2364751    
    153000   296.32464     -874.90448      29764.482      34962.629      34143.166      64223.306      1.2270417    
    154000   301.01517     -26.650747      29658.45       34938.878      34914.056      63863.854      1.233948     
    155000   300.39455     -751.32145      29641.791      34911.332      34206.568      64319.438      1.2252078    
    156000   296.29237      1108.373       29756.674      34954.255      35993.166      64271.234      1.2261267    
    157000   296.99609     -485.14417      29629.911      34839.837      34385.218      64254.027      1.226455     
    158000   303.38973      445.27001      29685.233      35007.316      35422.032      63863.273      1.2339592    
    159000   301.06169      99.254515      29694.243      34975.488      35068.258      64089.016      1.2296128    
    160000   300.78471     -168.79457      29722.003      34998.388      34839.522      64535.214      1.2211112    
    161000   300.21187     -597.13427      29815.201      35081.538      34523.453      64084.436      1.2297007    
    162000   300.46939      550.78986      29735.076      35005.93       35521.69       64207.509      1.2273436    
    163000   300.39412      29.837565      29776.986      35046.52       35074.467      64224.447      1.2270199    
    164000   299.03533     -382.48169      29785.751      35031.449      34672.708      64312.381      1.2253422    
    165000   303.3444      -836.44034      29811.866      35133.153      34347.853      64376.113      1.2241291    
    166000   301.20688      81.496043      29754.948      35038.739      35114.83       64020.219      1.2309341    
    167000   298.5743      -1174.4356      29771.509      35009.119      33903.958      64523.879      1.2213257    
    168000   302.86001      22.856308      29776.806      35089.596      35111.036      64317.288      1.2252487    
    169000   299.24083     -88.050047      29720.273      34969.576      34887.185      64161.351      1.2282265    
    170000   294.39049      823.81535      29626.567      34790.784      35559.151      63953.263      1.2322229    
    171000   300.93051      317.99795      29732.486      35011.429      35308.922      64146.968      1.2285019    
    172000   298.41177      168.5051       29785.002      35019.761      35177.141      64041.095      1.2305329    
    173000   298.39028      854.82553      29657.233      34891.615      35688.736      63939.722      1.2324838    
    174000   301.90262     -925.89799      29634.385      34930.381      34062.618      64263.171      1.2262805    
    175000   306.30733     -882.1154       29764.396      35137.66       34315.103      63938.817      1.2325013    
    176000   303.28288      939.25087      29649.222      34969.431      35852.394      64459.261      1.2225501    
    177000   301.62401     -1354.6883      29816.746      35107.854      33850.256      63654.12       1.2380137    
    178000   301.63733     -209.64908      29741.67       35033.012      34836.578      64246.182      1.2266048    
    179000   300.32563      1697.507       29684.643      34952.975      36522.233      63387.956      1.2432121    
    180000   302.26865     -262.01243      29752.229      35054.646      34809.296      64207.831      1.2273374    
    181000   302.8784       91.786296      29668.019      34981.132      35066.625      63866.744      1.2338922    
    182000   302.86289     -212.78129      29858.15       35170.991      34971.264      64361.75       1.2244023    
    183000   296.84473     -1061.3809      29771.16       34978.43       33984.18       64231.571      1.2268838    
    184000   296.31857     -997.09757      29854.145      35052.185      34116.354      64355.232      1.2245263    
    185000   301.63615     -359.43292      29740.949      35032.27       34695.852      64177.89       1.22791      
    186000   298.90334     -64.141989      29680.193      34923.575      34863.685      64023.045      1.2308798    
    187000   303.78808      256.00828      29636.528      34965.599      35202.253      63384.663      1.2432767    
    188000   301.54322     -625.44332      29823.085      35112.777      34527.437      64171.759      1.2280273    
    189000   302.53929     -117.0024       29707.649      35014.814      34905.627      63987.882      1.2315562    
    190000   298.10547     -595.14034      29766.179      34995.565      34440.266      63978.1        1.2317445    
    191000   303.04078     -1475.333       29805.046      35121.008      33748.187      63804.024      1.2351051    
    192000   297.68858      365.08901      29674.369      34896.442      35235.649      63707.361      1.2369791    
    193000   298.81038      462.78661      29856.455      35098.207      35533.388      64478.242      1.2221902    
    194000   295.17441     -307.04843      29750.178      34928.147      34641.41       64032.695      1.2306943    
    195000   306.81082      784.77718      29802.785      35184.881      35919.706      64203.96       1.2274114    
    196000   298.19624     -11.741491      29669.288      34900.266      34889.294      64072.976      1.2299206    
    197000   304.49743      1003.9507      29732.597      35074.111      36010.213      63934.454      1.2325854    
    198000   297.52264      314.1806       29674.23       34893.392      35185.632      63779.862      1.235573     
    199000   305.79703     -134.62194      29778.087      35142.399      35016.861      63941.82       1.2324434    
    200000   298.56133      795.16671      29780.289      35017.672      35758.676      63897.872      1.233291     
    201000   297.24802     -434.91592      29667.636      34881.981      34476.723      63892.646      1.2333919    
    202000   299.17233     -683.54425      29677.75       34925.851      34291.061      63677.683      1.2375556    
    203000   298.847       -790.21144      29665.609      34908.003      34168.494      64168.831      1.2280834    
    204000   302.77664      110.44097      29781.232      35092.56       35195.546      63940.261      1.2324734    
    205000   300.05643     -870.84677      29764.56       35028.17       34218.172      63777.358      1.2356215    
    206000   298.59754     -489.04704      29684.612      34922.63       34466.584      63941.512      1.2324493    
    207000   296.83116     -201.76514      29683.567      34890.6        34702.314      63987.509      1.2315634    
    208000   303.81163      256.41818      29758.512      35087.996      35325.501      63510.993      1.2408037    
    209000   300.65487     -336.459        29668.327      34942.435      34630.905      63487.914      1.2412547    
    210000   296.49188      500.6732       29655.07       34856.151      35323.753      64039.172      1.2305698    
    211000   293.80009     -167.49734      29790.07       34943.931      34787.494      64040.394      1.2305464    
    212000   305.46502      390.35671      29733.36       35091.848      35455.984      63962.632      1.2320424    
    213000   304.85417      566.95859      29679.326      35027.098      35554.378      63769.603      1.2357717    
    214000   300.20792      76.71968       29662.683      34928.95       35000.875      64283.131      1.2258997    
    215000   302.48524     -267.95964      29679.195      34985.412      34733.866      64368.197      1.2242796    
    216000   301.74934     -488.90993      29648.135      34941.442      34485.937      63883.438      1.2335697    
    217000   306.55182      495.38237      29772.538      35150.091      35610.105      63672.865      1.2376493    
    218000   301.07955     -674.7107       29677.071      34958.629      34328.761      64011.235      1.2311069    
    219000   305.89752     -681.60646      29776.594      35142.669      34505.084      64139.983      1.2286357    
    220000   300.58841     -918.3992       29711.464      34984.406      34125.843      64101.002      1.2293829    
    221000   297.12983      298.79233      29754.909      34967.18       35246.879      64186.745      1.2277406    
    222000   303.87076      329.50693      29744.691      35075.212      35382.375      63918.706      1.2328891    
    223000   301.15585     -1919.4971      29666.395      34949.292      33153.497      64149.489      1.2284536    
    224000   300.67657      1449.5273      29801.936      35076.425      36436.667      64344.894      1.224723     
    225000   302.51866     -1001.5209      29748.392      35055.195      34119.592      64055.385      1.2302584    
    226000   297.51246     -1021.5768      29608.228      34827.212      33872.699      64067.065      1.2300341    
    227000   298.69311     -36.366283      29786.587      35026.281      34992.436      63816.247      1.2348685    
    228000   304.07882     -99.828789      29674.87       35009.041      34915.977      63921.717      1.232831     
    229000   301.54273     -350.58251      29618.581      34908.264      34582.823      63651.208      1.2380704    
    230000   296.61044     -464.01546      29717.935      34921.095      34487.837      64023.338      1.2308742    
    231000   296.66087     -194.76572      29792.493      34996.538      34814.656      64032.746      1.2306933    
    232000   303.90329      986.70586      29660.37       34991.462      35908.849      63751.27       1.2361271    
    233000   297.73048      359.179        29647.367      34870.175      35206.035      64116.726      1.2290814    
    234000   296.5484       1804.4173      29631.241      34833.313      36528.003      64398.745      1.2236989    
    235000   300.21437      488.21783      29627.532      34893.913      35350.12       64072.696      1.229926     
    236000   298.10007     -651.55494      29647.96       34877.252      34270.768      63825.21       1.2346951    
    237000   297.24685     -1356.085       29679.413      34893.737      33630.247      63886.497      1.2335106    
    238000   297.22955     -702.35716      29821.388      35035.408      34382.07       63782.904      1.235514     
    239000   304.32234      434.6838       29627.966      34966.409      35373.074      64148.546      1.2284717    
    240000   296.64169     -526.62353      29664.837      34868.545      34377.974      63874.319      1.2337458    
    241000   302.78099     -935.35761      29751.314      35062.719      34184.974      64344.978      1.2247214    
    242000   299.17145     -1891.6154      29741.995      34990.08       33210.331      64513.415      1.2215238    
    243000   294.76414      330.33739      29809.406      34980.178      35287.749      63842.787      1.2343552    
    244000   296.99234     -854.79777      29667.159      34877.019      34081.947      63777.437      1.23562      
    245000   297.84004     -583.8647       29612.599      34837.329      34295.939      63580.331      1.2394505    
    246000   298.64556      371.94523      29650.523      34889.384      35235.784      63859.232      1.2340373    
    247000   310.49929      344.03779      29806.845      35253.645      35574.36       63920.1        1.2328622    
    248000   303.29016     -10.395556      29620.281      34940.617      34930.891      64149.455      1.2284543    
    249000   300.64214     -413.51932      29767.992      35041.876      34653.296      64433.161      1.2230453    
    250000   302.98629      316.01016      29683.501      34998.507      35293.334      63972.093      1.2318602    
    251000   300.53653     -55.016427      29787.381      35059.413      35007.825      64295.59       1.2256622    
    252000   301.97031     -1852.7814      29670.269      34967.453      33234.348      64139.397      1.2286469    
    253000   300.93278     -383.72767      29734.307      35013.29       34653.653      64263.585      1.2262726    
    254000   306.24073      1170.3591      29711.514      35083.61       36176.161      64009.827      1.231134     
    255000   300.15847     -44.32021       29716.645      34982.045      34940.452      64348.155      1.224661     
    256000   304.73106      1417.1995      29811.328      35156.94       36478.789      63955.027      1.2321889    
    257000   299.40213      556.81408      29704.101      34956.233      35475.483      63942.649      1.2324274    
    258000   299.82242      983.56033      29615.027      34874.532      35785.536      63510.154      1.2408201    
    259000   300.70567      1336.0823      29674.968      34949.967      36185.044      63384.756      1.2432749    
    260000   303.56224      949.65172      29620.388      34945.497      35829.156      63803.509      1.235115     
    261000   294.223        571.35692      29580.191      34741.47       35272.395      63716.208      1.2368074    
    262000   306.39195     -1907.3473      29643.906      35018.654      33239.274      63968.052      1.231938     
    263000   299.42534      691.36146      29695.318      34947.857      35598.513      64531.282      1.2211856    
    264000   304.45292      1466.5627      29756.743      35097.477      36463.118      63849.845      1.2342187    
    265000   300.01063      1141.0878      29768.109      35030.916      36098.693      64163.124      1.2281926    
    266000   300.64555     -184.58693      29683.835      34957.779      34785.899      63848.223      1.2342501    
    267000   295.00993     -1236.1267      29679.045      34854.129      33708.33       63557.923      1.2398875    
    268000   298.6717       148.36326      29706.441      34945.76       35084.665      64197.33       1.2275382    
    269000   304.71293     -1494.0451      29761.777      35107.072      33720.356      63642.616      1.2382375    
    270000   299.96855      160.20132      29691.967      34954.036      35103.149      63822.595      1.2347457    
    271000   302.07027     -374.35468      29744.43       35043.367      34693.293      64120.988      1.2289997    
    272000   302.77991     -709.14397      29763.21       35074.595      34411.253      64139.815      1.2286389    
    273000   295.93628      770.51809      29652.431      34843.765      35558.758      63627.231      1.2385369    
    274000   296.61448     -69.730008      29674.764      34877.996      34812.697      64210.373      1.2272888    
    275000   302.29154      169.34933      29668.839      34971.657      35129.289      63824.079      1.234717     
    276000   305.41223      362.79696      29774.463      35132.025      35469.571      63796.024      1.23526      
    277000   301.97388      456.83838      29671.032      34968.278      35393.689      63851.398      1.2341887    
    278000   298.99184     -1291.8897      29725.585      34970.52       33758.204      64344.959      1.2247218    
    279000   303.25076     -861.78609      29682.905      35002.551      34196.7        64117.894      1.229059     
    280000   303.07793     -805.47778      29584.37       34900.984      34150.989      63845.324      1.2343061    
    281000   298.4362      -1564.684       29627.351      34862.539      33404.203      63907.988      1.2330958    
    282000   299.63413      520.66199      29712.623      34968.825      35449.616      63317.662      1.2445923    
    283000   298.542       -1654.4333      29623.446      34860.49       33320.673      63818.085      1.234833     
    284000   301.21357      595.80175      29779.678      35063.587      35614.464      63398.253      1.2430102    
    285000   298.11733      286.97582      29669.899      34899.493      35167.345      63999.031      1.2313417    
    286000   298.44865     -544.96197      29696.392      34931.799      34426.243      63610.284      1.2388669    
    287000   297.85278     -498.32997      29726.039      34950.992      34486.603      63898.277      1.2332832    
    288000   301.08049     -289.51024      29685.353      34966.927      34698.896      63481.183      1.2413863    
    289000   292.38876      409.96719      29661.529      34790.632      35171.11       63636.226      1.2383618    
    290000   298.75333     -115.22339      29828.95       35069.701      34962.593      63738.915      1.2363667    
    291000   297.60527     -1442.9293      29724.413      34945.025      33595.033      64151.99       1.2284058    
    292000   301.11391     -1008.6079      29707.869      34990.03       34051.198      63824.778      1.2347034    
    293000   299.27232     -57.723114      29614.025      34863.88       34810.274      63677.916      1.2375511    
    294000   292.51028     -1227.4423      29664.782      34796.017      33652.936      63855.774      1.2341041    
    295000   302.63583     -797.59256      29688.805      34997.663      34254.245      63911.028      1.2330372    
    296000   299.19621     -1440.2093      29690.494      34939.014      33596.896      63898.323      1.2332824    
    297000   303.24003      902.28972      29741.638      35061.095      35903.447      64013.536      1.2310627    
    298000   299.29475      1366.7334      29649.573      34899.822      36163.158      63381.021      1.2433481    
    299000   305.09916      515.19659      29674.188      35026.258      35503.775      63553.628      1.2399713    
    300000   295.75781     -142.24837      29675.679      34863.882      34732.008      63567.534      1.2397       
    301000   300.96861      688.18834      29773.359      35052.971      35693.892      63858.895      1.2340438    
    302000   301.40323      1310.1951      29660.161      34947.397      36169.697      63968.443      1.2319305    
    303000   294.50111      1315.4076      29685.423      34851.581      36073.557      63698.062      1.2371597    
    304000   300.67812      813.36314      29732.848      35007.363      35758.308      63306.392      1.2448139    
    305000   301.79941     -528.45926      29582.221      34876.406      34386.876      63517.307      1.2406803    
    306000   299.713        950.05591      29741.948      34999.534      35881.666      63666.146      1.2377799    
    307000   301.37856     -2560.6565      29710.718      34997.521      32624.197      63552.091      1.2400013    
    308000   307.86576     -1569.6608      29706.928      35107.53       33644.909      63892.514      1.2333945    
    309000   301.39241      2309.8584      29683.832      34970.878      37106.006      63381.516      1.2433384    
    310000   299.80608      973.20809      29616.617      34875.835      35774.033      63283.491      1.2452643    
    311000   298.09061      247.43163      29691.128      34920.253      35149.891      63637.373      1.2383395    
    312000   307.16747      326.55165      29707.988      35096.341      35396.502      63026.989      1.2503322    
    313000   294.60981      436.97535      29700.754      34868.819      35270.696      63060.89       1.24966      
    314000   301.72058      609.41522      29714.121      35006.923      35572.623      63649.741      1.2380989    
    315000   301.17333      655.80347      29733.227      35016.43       35629.078      64056.25       1.2302418    
    316000   297.72299      1019.9219      29612.202      34834.878      35779.943      63535.854      1.2403182    
    317000   302.68438     -388.23186      29668.608      34978.318      34617.905      63655.112      1.2379944    
    318000   295.47655     -828.51222      29593.015      34776.285      34008.149      63571.636      1.23962      
    319000   299.84498     -292.05671      29709.782      34969.683      34695.723      64319.756      1.2252017    
    320000   300.70638      1903.7331      29643.702      34918.714      36689.311      63773.158      1.2357029    
    321000   295.88728     -1250.9939      29670.413      34860.888      33698.041      63736.964      1.2364046    
    322000   303.1212      -1112.9867      29727.649      35045.021      34009.378      63803.455      1.2351161    
    323000   308.73469     -55.31655       29662.699      35078.544      35027.212      63629.295      1.2384967    
    324000   296.8403      -388.15646      29654.69       34861.882      34502.738      63443.328      1.2421271    
    325000   298.58497     -546.67327      29735.671      34973.468      34463.194      64002.91       1.231267     
    326000   300.08164      939.56306      29664.549      34928.601      35795.818      63288.702      1.2451618    
    327000   303.34347      465.94824      29610.864      34932.136      35362.287      63300.545      1.2449288    
    328000   299.47476     -1757.3663      29711.323      34964.729      33332.086      63702.01       1.237083     
    329000   300.67875     -397.44949      29587.309      34861.836      34489.857      64174.213      1.2279804    
    330000   301.83862     -593.9346       29611.334      34906.207      34353.436      63816.24       1.2348687    
    331000   300.75246      243.00915      29777.201      35053.021      35279.129      63799.458      1.2351935    
    332000   300.90249      1010.3171      29671.902      34950.353      35887.424      63597.316      1.2391195    
    333000   298.40047     -1286.8516      29573.96       34808.522      33608.245      63955.356      1.2321826    
    334000   300.9158       744.70707      29765.233      35043.918      35738.807      63981.373      1.2316815    
    335000   298.32755     -298.32259      29634.096      34867.378      34588.403      64121.571      1.2289885    
    336000   301.29577      233.40647      29698.616      34983.967      35202.515      64203.47       1.2274208    
    337000   303.03877      453.59003      29692.521      35008.447      35431.83       64002.031      1.2312839    
    338000   299.35381      400.20593      29629.237      34880.522      35252.427      63719.617      1.2367412    
    339000   298.54025      119.10907      29729.641      34966.654      35076.813      63416.519      1.2426522    
    340000   299.67515      344.5897       29613.121      34870.043      35190.96       63857.903      1.234063     
    341000   300.09629      208.07785      29797.73       35062.04       35256.617      64119.414      1.2290299    
    342000   292.77035      936.34108      29648.691      34784.488      35656.344      63846.162      1.2342899    
    343000   298.00622     -1009.6071      29749.773      34977.419      34036.003      63937.103      1.2325343    
    344000   302.46382      825.21023      29828.094      35133.935      35905.987      64151.395      1.2284171    
    345000   299.28094      25.339648      29593.363      34843.369      34866.833      63491.069      1.2411931    
    346000   298.79343     -520.7522       29766.485      35007.939      34526.51       63390.685      1.2431586    
    347000   302.41396      1149.0158      29684.594      34989.56       36058.138      63768.239      1.2357982    
    348000   300.49535      992.68942      29711.35       34982.66       35910.194      64067.917      1.2300177    
    349000   296.77845     -503.78214      29646.047      34852.155      34381.827      64015.04       1.2310337    
    350000   301.98097     -465.76906      29665.836      34963.206      34529.87       63793.829      1.2353025    
    351000   296.4668       589.4597       29537.394      34738.035      35285.55       63689.225      1.2373313    
    352000   305.46025     -383.80945      29672.603      35031.007      34675.064      63589.973      1.2392626    
    353000   295.99436     -1306.679       29738.803      34931.156      33715.225      63806.348      1.2350601    
    354000   294.22008     -231.79344      29820.884      34982.113      34766.87       63672.458      1.2376572    
    355000   298.69995     -897.51513      29739.759      34979.573      34137.778      64311.515      1.2253587    
    356000   299.15927     -48.036769      29613.607      34861.479      34816.579      64091.675      1.2295618    
    357000   299.42007     -774.95074      29667.917      34920.364      34195.88       64103.006      1.2293444    
    358000   302.18341     -2148.5906      29693.495      34994.417      32978.701      64327.942      1.2250458    
    359000   298.41487     -220.02289      29776.123      35010.937      34805.524      64015.435      1.2310261    
    360000   299.72113     -166.81962      29652.971      34910.7        34756.293      63466.272      1.241678     
    361000   303.57014     -499.12463      29724.022      35049.27       34586.55       63567.22       1.2397062    
    362000   296.19724     -458.75274      29668.515      34864.427      34437.766      63771.747      1.2357302    
    363000   301.74167     -280.4686       29670.728      34963.9        34704.313      63463.368      1.2417348    
    364000   300.59865      21.482105      29710.872      34983.994      35003.932      63639.593      1.2382963    
    365000   298.96687     -261.32995      29704.497      34948.994      34704.092      64257.922      1.2263807    
    366000   301.67169     -532.63865      29811.972      35103.917      34610.851      63474.037      1.2415261    
    367000   297.29536     -259.29379      29718.197      34933.372      34691.965      63838.334      1.2344413    
    368000   301.83872     -358.76807      29594.454      34889.329      34556.718      63569.2        1.2396675    
    369000   300.44058     -343.82733      29766.603      35036.951      34717.944      63618.695      1.2387031    
    370000   301.82221     -1133.2599      29653.528      34948.114      33892.788      63852.969      1.2341583    
    371000   299.52739     -613.09832      29636.78       34891.109      34320.394      63828.358      1.2346342    
    372000   301.11041     -930.57555      29642.137      34924.236      34053.924      64127.909      1.228867     
    373000   305.1451      -167.84422      29763.878      35116.754      34961.277      63515.826      1.2407093    
    374000   303.05278      1940.7972      29615.331      34931.503      36724.186      63335.509      1.2442416    
    375000   295.21844     -735.49057      29682.228      34860.97       34181.994      63299.609      1.2449472    
    376000   300.31004      66.236031      29590.687      34858.746      34919.885      63291.313      1.2451104    
    377000   303.13143     -835.74958      29631.779      34949.331      34171.999      63775.609      1.2356554    
    378000   307.10141     -1262.5883      29753.348      35140.542      33968.415      63655.653      1.2379839    
    379000   298.27875      163.93729      29768.715      35001.141      35153.597      63766.15       1.2358387    
    380000   301.48556     -611.712        29585.385      34874.065      34307.555      63501.561      1.240988     
    381000   299.54785     -995.01766      29640.507      34895.196      33965.401      64073.816      1.2299045    
    382000   302.39484     -627.85572      29646.31       34950.941      34364.969      63994.187      1.2314349    
    383000   303.05336      269.70654      29631.794      34947.977      35197.112      63338.609      1.2441807    
    384000   301.22408     -1055.771       29539.912      34824.005      33848.297      63368.624      1.2435914    
    385000   299.34372      414.37884      29681.733      34932.841      35317.247      63608.749      1.2388968    
    386000   301.17735      746.38928      29690.79       34974.063      35663.685      63353.402      1.2438902    
    387000   301.01912     -1217.8759      29665.613      34946.111      33812.22       63839.882      1.2344113    
    388000   301.45495      49.371394      29676.215      34964.358      35009.954      63325.156      1.244445     
    389000   302.75785     -787.93153      29739.217      35050.216      34318.026      63717.575      1.2367808    
    390000   299.52493     -889.7698       29636.591      34890.878      34068.851      63347.906      1.2439981    
    391000   305.94514      1276.8531      29623.012      34989.922      36178.224      63813.117      1.2349291    
    392000   296.54747      232.84515      29593.65       34795.705      35011.141      63441.739      1.2421582    
    393000   297.08483     -34.351515      29737.065      34948.547      34916.809      63351.611      1.2439253    
    394000   297.145        876.98442      29601.127      34813.665      35623.521      63319.911      1.2445481    
    395000   293.63708      1197.3731      29687.684      34838.686      35950.262      63655.22       1.2379923    
    396000   299.86854      230.48189      29670.816      34931.13       35143.56       63198.024      1.2469484    
    397000   301.84994     -821.63791      29666.699      34961.771      34199.196      63639.361      1.2383008    
    398000   298.12441      486.57217      29640.842      34870.56       35324.115      63915.537      1.2329502    
    399000   299.25422     -897.92882      29696.499      34946.036      34110.894      63773.836      1.2356897    
    400000   304.50896      652.90488      29777.97       35119.687      35730.516      64149.637      1.2284508    
    401000   298.96404      674.11015      29672.051      34916.498      35543.912      63818.615      1.2348227    
    402000   305.35819     -2482.6649      29713.276      35069.89       32747.271      64148.14       1.2284795    
    403000   303.08465     -1131.2695      29675.661      34992.392      33942.104      63659.997      1.2378994    
    404000   294.08128     -866.11508      29693.936      34852.729      34048.275      63686.86       1.2373773    
    405000   300.35522     -240.42571      29702.282      34971.133      34749.028      63343.606      1.2440825    
    406000   300.07612     -204.11481      29633.928      34897.883      34707.416      63983.683      1.231637     
    407000   301.04865     -1206.4378      29547.226      34828.241      33712.601      63407.916      1.2428208    
    408000   300.8718       273.98959      29663.32       34941.233      35194.337      63341.678      1.2441204    
    409000   302.46986      403.70512      29743.829      35049.776      35422.584      63320.636      1.2445338    
    410000   304.36605     -361.55726      29624.594      34963.804      34626.782      63915.432      1.2329522    
    411000   296.52037      1057.6384      29590.574      34792.154      35774.457      63684.268      1.2374276    
    412000   305.72605      344.95911      29640.137      35003.204      35323.665      63698.918      1.2371431    
    413000   303.29706      852.05933      29749.002      35069.459      35864.227      63957.97       1.2321322    
    414000   305.35466     -779.45626      29613.297      34969.849      34251.198      63219.414      1.2465265    
    415000   302.08428      2194.1013      29676.663      34975.845      37017.363      63799.99       1.2351832    
    416000   297.35248     -250.41494      29640.686      34856.863      34624.005      63761.073      1.2359371    
    417000   298.52692      727.40627      29663.852      34900.631      35578.646      63912.586      1.2330071    
    418000   294.5067       1637.955       29673.458      34839.714      36355.356      63448.11       1.2420334    
    419000   297.18136     -1024.7902      29720.322      34933.497      33982.259      63647.074      1.2381508    
    420000   301.90143      907.66406      29605.895      34901.87       35741.092      63398.024      1.2430147    
    421000   297.45091     -224.45836      29555.387      34773.29       34565.536      63465.518      1.2416927    
    422000   294.53511     -345.87121      29692.968      34859.723      34539.742      63435.726      1.2422759    
    423000   299.35082     -675.46067      29648.078      34899.311      34273.208      63557.865      1.2398886    
    424000   298.34626      161.63365      29741.675      34975.286      35124.516      63306.635      1.2448091    
    425000   301.75966      205.93116      29674.733      34968.221      35159.057      63542.236      1.2401936    
    426000   302.01759      23.991548      29579.684      34877.697      34899.833      63265.221      1.2456239    
    427000   302.57801      732.25485      29715.265      35023.109      35698.782      63270.126      1.2455274    
    428000   299.74041      395.51636      29672.337      34930.403      35296.906      63538.542      1.2402657    
    429000   305.19573      929.95566      29741.143      35094.907      35954.823      63404.209      1.2428934    
    430000   298.53398     -245.3907       29617.784      34854.687      34627.616      63449.524      1.2420058    
    431000   304.3604       1148.5432      29692.491      35031.601      36089.957      63184.18       1.2472216    
    432000   297.59999     -183.80983      29752.014      34972.533      34801.617      63758.577      1.2359855    
    433000   298.72346     -1665.8671      29611.699      34851.926      33303.533      63733.114      1.2364793    
    434000   299.90897      384.27423      29654.176      34915.199      35268.643      63067.182      1.2495354    
    435000   296.69936     -1231.6326      29710.646      34915.366      33769.462      63795.653      1.2352671    
    436000   303.02085     -1209.7514      29684.497      35000.109      33870.359      64033.972      1.2306698    
    437000   297.25608     -359.11353      29647.092      34861.578      34529.44       63417.783      1.2426274    
    438000   301.09353     -182.88707      29690.096      34971.899      34802.029      63687.979      1.2373555    
    439000   298.70582      1575.6558      29665.127      34905.045      36371.285      63806.949      1.2350485    
    440000   299.32881     -431.55484      29763.051      35013.897      34614.875      63399.373      1.2429882    
    441000   295.81058      15.960124      29744.156      34933.285      34948.142      63828.668      1.2346282    
    442000   294.1591      -482.90465      29674.534      34834.693      34387.003      63568.095      1.2396891    
    443000   305.07037     -455.01952      29707.062      35058.627      34636.224      63653.426      1.2380272    
    444000   300.05823     -808.84279      29709.655      34973.297      34224.674      63463.375      1.2417347    
    445000   298.20214      276.7737       29600.199      34831.281      35088.025      63606.296      1.2389445    
    446000   304.27047     -194.96972      29735.774      35073.307      34893.673      63175.097      1.2474009    
    447000   300.33009     -1203.2866      29667.229      34935.64       33823.798      63357.472      1.2438103    
    448000   301.2471      -430.55058      29625.376      34909.873      34509.05       63834.127      1.2345226    
    449000   302.39014     -834.52319      29743.27       35047.818      34271.002      63826.903      1.2346623    
    450000   297.06351     -166.82149      29642.061      34853.169      34697.947      63800.75       1.2351685    
    451000   303.32286     -62.015676      29725.382      35046.292      34988.539      63854.886      1.2341213    
    452000   301.2298      -379.98818      29545.71       34829.903      34476.799      63717.269      1.2367867    
    453000   304.00422     -495.46161      29684.595      35017.457      34556.678      63768.613      1.2357909    
    454000   298.76222      1097.7043      29653.515      34894.422      35906.495      63219.477      1.2465252    
    455000   294.30518      512.07602      29690.889      34853.61       35330.686      63881.8        1.2336013    
    456000   302.84266      106.55355      29713.91       35026.396      35125.056      63488.809      1.2412372    
    457000   304.12085     -867.59153      29612.199      34947.107      34141.164      63696.177      1.2371963    
    458000   297.76643     -198.99563      29592.765      34816.204      34632.101      63436.84       1.2422541    
    459000   303.45483     -365.5307       29621.033      34944.258      34604.121      63804.894      1.2350882    
    460000   296.58465     -1656.0816      29564.066      34766.774      33226.152      63787.886      1.2354176    
    461000   298.40993     -476.58637      29645.639      34880.366      34438.529      63568.876      1.2396739    
    462000   301.69458     -663.30233      29677.883      34970.229      34352.947      63811.135      1.2349674    
    463000   298.44342      808.87066      29621.376      34856.69       35607.534      63649.427      1.238105     
    464000   295.63872      78.487895      29753.071      34939.186      35012.077      63678.947      1.237531     
    465000   296.79057      1306.4372      29692.126      34898.446      36110.113      63594.376      1.2391768    
    466000   299.02748      568.12819      29672.625      34918.186      35439.466      62914.31       1.2525715    
    467000   303.16869     -1403.3078      29703.42       35021.626      33717.665      63714.126      1.2368478    
    468000   298.14188     -16.005938      29596.836      34826.861      34812.062      63396.914      1.2430364    
    469000   295.72179     -845.22946      29611.62       34799.192      34014.584      63650.53       1.2380835    
    470000   298.11151      573.66872      29704.958      34934.45       35463.433      63227.361      1.2463698    
    471000   299.82258      144.87598      29559.607      34819.115      34952.423      63093.228      1.2490195    
    472000   302.44346      1107.1883      29703.647      35009.131      36034.352      63492.207      1.2411708    
    473000   298.08224      942.18761      29592.817      34821.795      35693.783      63459.537      1.2418098    
    474000   301.44326      1748.1522      29677.37       34965.308      36590.698      63753.287      1.236088     
    475000   296.04655     -604.49689      29610.561      34803.83       34242.384      63685.048      1.2374125    
    476000   303.56492     -464.02904      29736.997      35062.153      34634.523      63189.787      1.2471109    
    477000   302.45456     -187.17207      29717.161      35022.839      34848.065      64026.482      1.2308137    
    478000   299.99488     -1404.971       29666.408      34928.938      33623.129      63728.913      1.2365608    
    479000   311.27995      1654.2822      29781.195      35241.689      36775.23       63563.798      1.2397729    
    480000   298.50231     -422.90152      29653.679      34890.027      34498.068      63551.526      1.2400123    
    481000   297.01779      1128.8801      29668.869      34879.175      35926.273      63600.984      1.239048     
    482000   297.9384      -244.24411      29704.626      34931.082      34703.663      63844.872      1.2343148    
    483000   303.99386      718.3268       29599.996      34932.677      35597.006      63413.994      1.2427016    
    484000   296.24752     -674.40181      29654.534      34851.328      34226.015      63577.485      1.239506     
    485000   302.21551      953.9072       29677.512      34978.997      35858.791      63241.092      1.2460992    
    486000   298.19085     -312.78473      29720.268      34951.152      34661.053      63595.392      1.239157     
    487000   297.82261     -290.84472      29703.254      34927.678      34655.564      64152.548      1.2283951    
    488000   304.09147     -606.32357      29705.951      35040.344      34475.013      63932.524      1.2326226    
    489000   298.82478     -926.79519      29803.939      35045.943      34189.553      63359.551      1.2437695    
    490000   298.49841     -295.73758      29713.61       34949.889      34674.976      63740.122      1.2363433    
    491000   294.83587     -1258.4789      29658.6        34830.631      33653.007      64162.985      1.2281953    
    492000   301.81387     -266.50532      29702.243      34996.682      34748.214      63927.633      1.2327169    
    493000   302.39751      29.735776      29633.744      34938.421      34966.101      63826.965      1.2346612    
    494000   293.6773       318.40091      29574.316      34726.023      35021.633      63660.39       1.2378918    
    495000   300.53008      304.56648      29730.793      35002.712      35286.751      63946.918      1.2323451    
    496000   299.85011      1467.0662      29711.569      34971.56       36332.757      63620.26       1.2386726    
    497000   299.57192     -358.2717       29655.558      34910.669      34579.057      63466.003      1.2416833    
    498000   301.37931      850.37508      29719.916      35006.732      35795.114      63569.665      1.2396585    
    499000   299.32973      1880.6093      29638.137      34888.999      36634.146      63629.336      1.2384959    
    500000   300.67127      527.91183      29725.977      35000.372      35491.155      63745.861      1.236232     
    501000   295.61737      870.06199      29626.253      34811.993      35620.324      63703.462      1.2370548    
    502000   300.79791      6.2107497      29601.722      34878.339      34884.087      63462.154      1.2417586    
Loop time of 351.93 on 32 procs for 500000 steps with 5886 atoms

Performance: 122.752 ns/day, 0.196 hours/ns, 1420.738 timesteps/s, 8.362 Matom-step/s
100.0% CPU use with 32 MPI tasks x no OpenMP threads

MPI task timing breakdown:
Section |  min time  |  avg time  |  max time  |%varavg| %total
---------------------------------------------------------------
Pair    | 153.22     | 206.55     | 239.4      | 143.2 | 58.69
Bond    | 14.754     | 17.32      | 19.527     |  29.0 |  4.92
Neigh   | 39.276     | 39.675     | 40.073     |   6.1 | 11.27
Comm    | 44.949     | 79.475     | 134.48     | 238.7 | 22.58
Output  | 0.01106    | 0.012969   | 0.06865    |   8.8 |  0.00
Modify  | 6.3934     | 6.7256     | 6.9715     |   5.6 |  1.91
Other   |            | 2.173      |            |       |  0.62

Nlocal:        183.938 ave         201 max         164 min
Histogram: 2 2 7 1 2 5 1 4 3 5
Nghost:        4494.62 ave        4568 max        4440 min
Histogram: 5 3 4 3 4 4 4 0 3 2
Neighs:        60778.7 ave       68740 max       50570 min
Histogram: 4 2 1 2 2 4 5 3 5 4

Total # of neighbors = 1944917
Ave neighs/atom = 330.43102
Ave special neighs/atom = 10.414883
Neighbor list builds = 22114
Dangerous builds = 0

unfix EQ


# ============================================
# Heating scan: enthalpy vs temperature
# ============================================

variable T equal 300
variable T_end equal 900
variable dT equal 10

shell echo "# T(K)    Enthalpy(kcal/mol)    Volume(A^3)" > H_T.dat

label loop_T
if "${T} > ${T_end}" then "jump SELF end_loop"

reset_timestep 0
velocity all create ${T} 293847 dist gaussian mom yes rot yes
velocity all create 300 293847 dist gaussian mom yes rot yes

fix NPT all npt temp ${T} ${T} 100.0 iso 1.0 1.0 1000.0
fix NPT all npt temp 300 ${T} 100.0 iso 1.0 1.0 1000.0
fix NPT all npt temp 300 300 100.0 iso 1.0 1.0 1000.0

thermo_style custom step temp press enthalpy vol density
thermo 2000

run 500000     # 500 ps per temperature
Generated 28 of 28 mixed pair_coeff terms from geometric mixing rule
Per MPI rank memory allocation (min/avg/max) = 11.95 | 12.1 | 12.48 Mbytes
   Step          Temp          Press         Enthalpy        Volume        Density    
         0   300           -3.871368       34860.759      63462.154      1.2417586    
      2000   300.90806      462.51123      35386.148      63054.001      1.2497966    
      4000   304.30868      363.31543      35403.159      63441.542      1.242162     
      6000   296.50141     -229.09259      34576.359      63710.667      1.2369149    
      8000   307.21857     -237.27777      34886.812      63849.362      1.2342281    
     10000   307.52406     -773.95117      34292.812      63903.492      1.2331826    
     12000   296.91542      1302.389       36147.025      63427.23       1.2424423    
     14000   298.40452     -85.45951       34949.144      64054.902      1.2302676    
     16000   302.14937     -423.15826      34505.135      63589.335      1.239275     
     18000   304.19647      370.81775      35297.742      63610.856      1.2388557    
     20000   301.4648       592.76631      35429.999      63090.782      1.249068     
     22000   293.08839     -491.83726      34415.686      63737.153      1.2364009    
     24000   300.04018     -104.03019      34805.502      63522.049      1.2405877    
     26000   303.80011      568.00188      35545.422      63252.04       1.2458835    
     28000   299.05021      280.25155      35161.862      63587.053      1.2393195    
     30000   304.16808      318.0936       35283.915      64261.14       1.2263193    
     32000   296.99439     -451.0299       34472.527      64222.032      1.227066     
     34000   295.58664     -918.31278      34067.944      63989.5        1.2315251    
     36000   297.24253     -385.27924      34582.651      63900.169      1.2332467    
     38000   301.65303     -134.6984       34826.148      63984.408      1.2316231    
     40000   299.42989      201.25138      35121.343      63778.72       1.2355951    
     42000   297.93029     -1360.6121      33559.282      63452.7        1.2419436    
     44000   302.359       -244.7216       34597.379      63412.144      1.2427379    
     46000   303.31127      402.9895       35396.917      63296.718      1.2450041    
     48000   304.07891     -694.34059      34246.513      63619.325      1.2386908    
     50000   296.85701     -1375.467       33567.387      63613.424      1.2388057    
     52000   301.4695       304.2212       35170.953      63887.331      1.2334945    
     54000   299.34179     -1268.8154      33773.898      63421.072      1.2425629    
     56000   297.4186       299.95954      35192.278      63849.341      1.2342285    
     58000   306.30384      157.88528      35155.351      62927.595      1.2523071    
     60000   302.92386      439.22057      35362.103      62976.927      1.2513261    
     62000   296.05195      456.00167      35267.432      63365.034      1.2436618    
     64000   300.48035      611.06626      35493.065      63355.609      1.2438468    
     66000   299.26891      1779.8845      36578.624      62956.303      1.2517361    
     68000   295.43967     -223.40761      34705.583      63100.829      1.2488691    
     70000   300.13291     -912.19299      34033.205      63655.916      1.2379788    
     72000   294.24937     -264.91026      34640.105      62969.501      1.2514737    
     74000   303.39062     -240.72305      34751.799      62941.618      1.2520281    
     76000   296.79922     -1014.2187      33949.965      63075.334      1.2493739    
     78000   300.82755     -1074.5228      33929.048      62785.378      1.2551437    
     80000   299.17814     -1216.0585      33706.854      62691.581      1.2570216    
     82000   298.29946      157.91906      34947.391      63387.163      1.2432277    
     84000   303.92823     -197.41295      34727.775      63086.901      1.2491448    
     86000   299.2011      -888.58988      34140.596      63066.8        1.2495429    
     88000   303.74177     -366.02896      34598.774      62947.278      1.2519155    
     90000   299.2064       97.182435      34928.209      63145.817      1.2479793    
     92000   298.79351     -714.18097      34220.566      63296.578      1.2450069    
     94000   301.59816      459.11777      35198.37       62735.761      1.2561364    
     96000   300.12578      237.22122      35086.711      62798.089      1.2548897    
     98000   294.64955      171.84823      34976.423      63032.525      1.2502224    
    100000   300.25582     -1873.3497      33129.146      63408.571      1.2428079    
    102000   302.33391     -648.97799      34301.152      63088.235      1.2491184    
    104000   295.94559      653.41268      35472.924      62785.332      1.2551447    
    106000   302.95197      5.4404695      34901.919      62998.742      1.2508928    
    108000   301.09539      1822.6024      36662.549      62824.564      1.2543609    
    110000   300.4249       619.86631      35475.852      63203.394      1.2468424    
    112000   300.1641       24.72304       34828.879      62704.531      1.256762     
    114000   301.68419     -736.94339      34320.985      62986.679      1.2511324    
    116000   302.3445      -770.75636      34115.911      63232.333      1.2462718    
    118000   303.437        38.804997      34989.805      63519.472      1.2406381    
    120000   303.83571     -487.27767      34451.226      62925.705      1.2523447    
    122000   304.05161     -559.60562      34390.296      62907.62       1.2527047    
    124000   301.86748     -1096.5618      33835.214      63373.366      1.2434983    
    126000   308.65608     -1329.5436      33842.804      62762.403      1.2556032    
    128000   297.89004     -890.44485      34016.119      63075.65       1.2493676    
    130000   299.63615     -415.54424      34543.7        63853.307      1.2341518    
    132000   299.22541      473.819        35376.253      63347.417      1.2440077    
    134000   304.25041      1370.3354      36258.473      63215.122      1.2466111    
    136000   299.94666      464.62402      35241.311      63172.658      1.2474491    
    138000   297.85831      1229.5094      36052.011      63732.666      1.236488     
    140000   297.87132     -774.32008      34144.903      63601.896      1.2390303    
    142000   295.54715     -1012.2515      33902.428      63447.938      1.2420368    
    144000   298.37572     -771.03952      34259.415      63484.225      1.2413269    
    146000   294.46304      688.72368      35404.736      63422.164      1.2425415    
    148000   303.7779      -231.31358      34802.035      63188.671      1.2471329    
    150000   305.98778      588.73859      35600.703      63767.996      1.2358029    
    152000   299.36095      54.890616      34922.903      63215.487      1.2466039    
    154000   300.96125      48.651405      34910.741      63413.67       1.242708     
    156000   300.54531      329.27035      35207.066      63225.323      1.24641      
    158000   292.67134     -164.46265      34526.184      62878.057      1.2532937    
    160000   300.61374      426.28751      35203.129      63344.432      1.2440663    
    162000   300.36278     -417.4392       34521.178      63109.261      1.2487022    
    164000   300.90931      370.64168      35220.707      62898.713      1.2528821    
    166000   300.28791     -226.6126       34689.897      62917.669      1.2525047    
    168000   300.86439      1124.3118      35997.473      63588.15       1.2392981    
    170000   302.32244     -179.304        34670.543      63409.303      1.2427936    
    172000   300.02451     -1294.684       33700.08       63287.076      1.2451938    
    174000   301.70886      108.01184      35049.647      63135.325      1.2481867    
    176000   303.7486       974.54819      35845.755      62892.212      1.2530116    
    178000   307.78598      575.20426      35533.642      63086.34       1.2491559    
    180000   298.19426      173.79677      35085.588      63285.392      1.2452269    
    182000   299.04165      922.40646      35765.265      62877.644      1.253302     
    184000   295.47837      909.0198       35641.274      63231.871      1.2462809    
    186000   300.49266      48.798023      34956.14       62762.975      1.2555918    
    188000   297.78717     -172.01414      34616.915      63211.685      1.2466789    
    190000   307.09155     -1292.9076      33844.409      63023.515      1.2504011    
    192000   301.2857      -269.1398       34594.546      63159.435      1.2477102    
    194000   293.37992     -260.16426      34626.582      63216.551      1.2465829    
    196000   297.885       -538.51443      34444.042      63298.442      1.2449702    
    198000   300.39372      1017.0059      35823.541      63133.442      1.2482239    
    200000   297.93675      335.56236      35111.613      63277.404      1.2453841    
    202000   300.76149      1395.723       36129.257      63135.66       1.2481801    
    204000   297.43566     -860.75418      34037.182      62745.653      1.2559384    
    206000   306.48469      435.42525      35419.284      62782.53       1.2552007    
    208000   295.85662      514.67548      35205.03       62744.707      1.2559573    
    210000   293.73155     -384.53836      34420.448      62797.97       1.2548921    
    212000   300.07773     -1137.1586      33795.831      62558.267      1.2597004    
    214000   302.96885     -457.09954      34467.648      63061.054      1.2496568    
    216000   292.92632      505.44802      35242.292      63132.595      1.2482407    
    218000   296.41055      1384.54        36041.554      62558.716      1.2596914    
    220000   306.5084       127.01716      35111.531      63554.986      1.2399448    
    222000   298.93007      169.64722      34986.984      63253.536      1.2458541    
    224000   295.26195     -890.48543      33915.192      63341.577      1.2441224    
    226000   302.76832     -33.848918      34838.411      63159.373      1.2477115    
    228000   303.75622      1801.7947      36572.988      62963.074      1.2516014    
    230000   300.42885     -1551.8563      33518.055      63436.435      1.242262     
    232000   297.30369     -390.81745      34499.831      62277.662      1.2653762    
    234000   300.36593     -47.455558      34822.553      63207.209      1.2467672    
    236000   299.47236      1749.4859      36432.083      62818.837      1.2544752    
    238000   300.64954      729.01211      35557.337      63070.979      1.2494601    
    240000   301.92262      1893.6345      36567.505      63340.151      1.2441504    
    242000   300.1194       772.32143      35644.238      63341.529      1.2441233    
    244000   303.03067     -681.34418      34302.003      63210.519      1.2467019    
    246000   300.4335      -137.29136      34642.509      63269.638      1.245537     
    248000   299.43173     -311.85775      34567.521      63436.903      1.2422529    
    250000   300.32567     -419.34941      34504.264      62929.654      1.2522661    
    252000   303.3118      -157.95905      34757.841      62982.961      1.2512062    
    254000   298.87559     -65.380515      34670.178      63145.323      1.2479891    
    256000   299.7213       1208.5295      35916.851      63107.15       1.248744     
    258000   301.0843       642.29786      35512.596      63337.992      1.2441928    
    260000   297.74483     -358.37759      34406.143      63135.464      1.248184     
    262000   301.84905      110.09201      34930.483      63094.271      1.2489989    
    264000   301.88395      1378.8814      36185.028      63168.174      1.2475376    
    266000   303.51007     -92.476056      34985.566      63219.102      1.2465326    
    268000   300.98181     -1331.6591      33618.782      63221.388      1.2464876    
    270000   299.5711       214.86266      35062.167      62985.374      1.2511583    
    272000   298.81741     -1730.6731      33280.403      63134.481      1.2482034    
    274000   303.0681      -222.95597      34743.739      62965.164      1.2515599    
    276000   296.4316       792.69876      35620.064      62878.542      1.253284     
    278000   297.37454     -1626.1372      33337.314      62917.81       1.2525019    
    280000   302.85508      1745.0272      36572.934      62694.361      1.2569659    
    282000   297.64232      34.454262      34892.206      62947.067      1.2519197    
    284000   293.31665     -334.04505      34421.116      63016.513      1.2505401    
    286000   301.17731      930.75288      35783.865      62881.283      1.2532294    
    288000   299.8852       117.49227      34970.101      63046.841      1.2499385    
    290000   301.29628      232.1021       35126.312      62791.655      1.2550183    
    292000   295.33691     -7.2046345      34666.287      62806.519      1.2547213    
    294000   300.45923     -308.61708      34693.373      62808.56       1.2546805    
    296000   299.71035     -270.25883      34522.137      62871.405      1.2534263    
    298000   300.94919      1790.1274      36499.92       62625.628      1.2583455    
    300000   300.33775     -843.48246      34039.622      62805.852      1.2547346    
    302000   297.14809      694.93708      35385.773      62821.003      1.254432     
    304000   300.98927     -418.62514      34496.186      63175.071      1.2474014    
    306000   300.25189      1958.4062      36714.355      63067.615      1.2495268    
    308000   301.46229      709.96593      35492.755      63343.802      1.2440787    
    310000   295.2745       1022.0038      35686.952      62777.461      1.255302     
    312000   303.15137      427.33735      35336.392      62723.403      1.2563839    
    314000   304.92416      360.46641      35278.016      62773.28       1.2553856    
    316000   300.12628      959.93582      35772.287      62703.757      1.2567775    
    318000   297.63014      1334.2662      36061.495      63044.623      1.2499825    
    320000   296.09595      186.38773      34849.281      62957.254      1.2517171    
    322000   299.25454     -912.04943      33988.797      63289.03       1.2451553    
    324000   307.44155     -525.1855       34445.93       62522.395      1.2604231    
    326000   300.62512      1037.4335      35869.434      62955.91       1.2517439    
    328000   303.0665       408.95369      35302.522      63220.122      1.2465125    
    330000   297.9566      -134.43093      34764.822      62711.776      1.2566168    
    332000   297.7136      -639.36645      34363.019      63062.489      1.2496283    
    334000   303.0678       1116.6207      35960.659      63241.545      1.2460903    
[...]
     80000   890.86959      17.523215      56912.344      84900.049      0.92820528   
     82000   907.78469      1844.816       60145.907      86295.268      0.91319809   
     84000   904.62437     -1268.7889      55675.468      86820.154      0.9076772    
     86000   901.95035      1921.1472      59635.204      84749.592      0.92985313   
     88000   876.94361     -1079.2162      55475.931      83080.468      0.94853431   
     90000   894.98954      168.2408       57578.604      86543.159      0.91058235   
     92000   902.82144     -1109.0737      56021.915      85553.556      0.92111512   
     94000   916.29467     -726.46691      57052.178      87248.04       0.90322572   
     96000   899.9346       889.74486      58694.686      84900.286      0.92820269   
     98000   904.48444      467.56426      57967.738      85723.712      0.91928676   
    100000   888.13122     -710.71624      56496.611      85707.113      0.91946481   
    102000   895.69081      523.15904      57537.398      83345.556      0.9455174    
    104000   893.98152      367.59023      57481.503      85979.872      0.91654794   
    106000   895.81955      1979.221       59251.372      83824.172      0.94011873   
    108000   895.42575     -753.83243      55995.889      84738.626      0.92997347   
    110000   878.84741      84.48009       56977.943      84908.424      0.92811373   
    112000   899.1084      -1391.7771      55568.246      88057.086      0.89492712   
    114000   898.40166      1352.0933      58762.107      85693.273      0.9196133    
    116000   909.01988     -1391.0846      55820.513      87609.411      0.8995001    
    118000   894.03165      486.43372      57678.167      86059.209      0.91570298   
    120000   918.5712       1445.9923      59063.908      86205.11       0.91415316   
    122000   901.99804     -2473.7488      54264.625      86335.39       0.9127737    
    124000   909.45319      102.47268      57458.304      85564.932      0.92099265   
    126000   895.86846     -301.0086       56869.446      86689.787      0.90904219   
    128000   898.86957      2036.5486      59564.215      84389.869      0.93381675   
    130000   912.83995      2173.3294      59848.013      81231.502      0.97012454   
    132000   902.35664      1601.3954      59319.357      84274.564      0.93509441   
    134000   914.61282     -360.50835      57295.209      85509.838      0.92158605   
    136000   900.6527       102.80813      57208.685      82747.755      0.95234818   
    138000   908.4364       1348.9103      59104.932      86287.632      0.9132789    
    140000   901.45283      684.0269       57782.26       82789.947      0.95186283   
    142000   905.00745     -1228.9487      55808.364      83709.275      0.94140911   
    144000   883.6772      -1160.0387      55461.209      85042.002      0.92665591   
    146000   900.51774     -164.0517       57170.76       84462.481      0.93301396   
    148000   912.26761     -206.34289      57455.001      85322.924      0.92360493   
    150000   907.0059       744.11233      58321.143      86975.744      0.90605346   
    152000   892.76698     -1538.2014      55265.179      85379.803      0.92298964   
    154000   890.53636      910.31829      57892.232      83255.232      0.9465432    
    156000   906.85621      510.08579      57907.906      86980.294      0.90600606   
    158000   890.11068     -1097.4331      55939.448      84330.132      0.93447824   
    160000   884.49898      270.66019      57419.486      85182.208      0.92513068   
    162000   889.75481     -929.52064      55840.583      87690.067      0.89867275   
    164000   897.78167      1853.329       59557.619      87195.219      0.90377288   
    166000   888.79557      830.2015       58083.053      85080.293      0.92623886   
    168000   898.86673     -1266.5528      55458.692      85428.324      0.92246541   
    170000   906.43363     -471.4479       56932.708      87022.558      0.90556605   
    172000   910.02512     -735.03093      56728.723      88593.558      0.88950795   
    174000   909.94938      1425.5134      59234.931      87214.896      0.90356897   
    176000   897.8709      -606.92631      56570.081      87083.281      0.9049346    
    178000   898.75998      1698.371       59372.155      85989.86       0.91644147   
    180000   895.19192     -567.79669      56587.107      88487.652      0.89057255   
    182000   894.23414      272.21198      57725.99       89888.192      0.87669662   
    184000   921.95076      151.92016      57497.283      86267.561      0.91349138   
    186000   910.45761     -296.47781      57056.634      87183.886      0.90389035   
    188000   896.6343       620.92691      58047.241      84241.429      0.93546222   
    190000   900.26766     -899.44801      56300.535      86924.077      0.90659202   
    192000   897.01279     -181.04726      57040.034      84303.177      0.93477703   
    194000   905.50329      141.36947      57829.843      87054.944      0.90522916   
    196000   890.7424      -18.82892       57058.087      85576.636      0.92086669   
    198000   896.17323     -402.10467      56854.071      86250.303      0.91367417   
    200000   894.49652     -1133.4265      55767.991      85130.517      0.92569242   
    202000   903.60812     -42.588858      57052.985      83072.076      0.94863012   
    204000   907.15385     -2.5436975      57453.817      82615.974      0.95386728   
    206000   894.47308      2077.0885      59643.568      83804.696      0.9403372    
    208000   910.10529     -887.49658      56271.111      82569.799      0.9544007    
    210000   905.31564     -1652.0967      55214.165      82796.621      0.95178611   
    212000   892.93657     -69.069589      57084.094      85024.386      0.9268479    
    214000   898.00284     -222.47206      56873.532      85216.738      0.92475581   
    216000   897.52516     -322.50148      56725.789      84242.126      0.93545447   
    218000   903.21127      1808.8909      59772.705      85612.069      0.92048557   
    220000   901.39265     -1405.9044      55466.626      85776.662      0.91871929   
    222000   907.86603     -2418.9723      54401.685      84642.17       0.93103324   
    224000   886.99103     -1048.4408      55822.798      84745.193      0.92990141   
    226000   920.60955      919.05473      58340.444      83021.309      0.94921021   
    228000   897.62648      104.04261      57463.754      84309.334      0.93470876   
    230000   894.94071     -2047.7948      54634.865      83035.171      0.94905174   
    232000   894.78072     -249.32808      56802.329      83191.913      0.94726363   
    234000   907.54289      267.93692      57565.659      84401.823      0.9336845    
    236000   900.18903     -210.27336      57020.59       87786.715      0.89768336   
    238000   894.40821     -1827.0497      55134.446      86969.607      0.9061174    
    240000   879.74684      686.33254      57815.079      86561.691      0.91038741   
    242000   893.61882     -38.996375      56926.188      86092.387      0.91535009   
    244000   904.92862      1307.9987      58985.507      87398.329      0.90167255   
    246000   905.65354      606.91817      58230.122      85082.128      0.92621889   
    248000   892.40511     -834.9208       55999.996      85706.286      0.91947368   
    250000   904.39201     -2254.0264      54604.869      85895.708      0.917446     
    252000   918.61639      1444.2459      59330.263      86151.872      0.91471807   
    254000   904.49537      627.88932      58272.12       87264.55       0.90305484   
    256000   885.99151     -788.76884      56104.485      85335.129      0.92347284   
    258000   897.66681      1345.0706      58947.289      83945.636      0.93875843   
    260000   902.64118     -339.52222      56846.817      86405.399      0.91203414   
    262000   896.95778      2174.9059      59574.979      84516.516      0.93241744   
    264000   902.587        1542.9595      59055.308      84755.167      0.92979198   
    266000   893.90338     -308.88643      56474.551      84114.032      0.93687904   
    268000   889.752        104.84924      57096.7        85606.473      0.92054573   
    270000   910.48815     -334.94162      57169.374      87589.697      0.89970255   
    272000   908.8194      -1148.5176      56332.075      85621.726      0.92038175   
    274000   930.29677      352.59862      58743.848      85835.665      0.91808777   
    276000   897.47881     -235.18045      56813.613      88775.233      0.8876876    
    278000   890.00241      624.71336      57691.89       87583.74       0.89976375   
    280000   878.09059     -861.07537      56055.088      86956.831      0.90625052   
    282000   886.50461     -73.503229      57011.206      88596.315      0.88948026   
    284000   915.59104     -361.65942      56911.045      86563.582      0.91036752   
    286000   907.32838     -1574.1879      55531.698      85550.34       0.92114975   
    288000   897.55309      1287.0458      58676.847      84784.134      0.9294743    
    290000   892.20108      1323.9483      58706.529      88516.402      0.89028329   
    292000   898.64896      167.57653      57336.573      85732.714      0.91919024   
    294000   901.75662      1113.9514      58898.288      85663.687      0.91993091   
    296000   895.22222     -480.36179      56966.642      85621.187      0.92038754   
    298000   913.23538      155.70064      57735.847      84586.839      0.93164226   
    300000   900.92002      209.84507      57431.45       83300.426      0.94602966   
    302000   914.61417      3289.1198      61454.176      82380.042      0.9565991    
    304000   906.49222      2650.8259      61115.065      85159.821      0.92537388   
    306000   912.55428      226.56657      57540.59       85590.48       0.92071775   
    308000   888.0977       720.23501      57727.365      85703.915      0.91949911   
    310000   907.34983      1433.6228      59205.645      81786.333      0.9635433    
    312000   898.81506     -919.84828      55978.475      82832.188      0.95137743   
    314000   882.30505     -1836.5239      54902.918      83685.773      0.94167349   
    316000   891.99757      1540.2179      59041.647      83421.69       0.94465449   
    318000   892.19031     -32.949825      56878.944      83438.634      0.94446266   
    320000   907.89014      1593.4075      59239.244      85690.991      0.9196378    
    322000   895.5115      -273.27713      56869.905      85721.433      0.9193112    
    324000   916.27295     -120.52518      57647.607      87408.501      0.90156761   
    326000   910.19818     -1496.0528      55593.961      86582.024      0.91017362   
    328000   894.09335      2095.6944      59504.374      85033.712      0.92674625   
    330000   886.4615      -940.19957      55579.184      87583.953      0.89976156   
    332000   898.91712      1223.6312      58641.516      86243.303      0.91374833   
    334000   903.54433      1240.8299      59019.077      89396.921      0.8815144    
    336000   905.62847      164.58949      57475.482      86475.072      0.91129931   
    338000   877.80151     -1313.2254      55335.703      87873.292      0.89679892   
    340000   879.57804     -348.15216      56292.999      88932.348      0.88611934   
    342000   892.38784     -778.53495      56098.586      88047.721      0.8950223    
    344000   887.18018      1206.7637      58843.532      86836.985      0.90750126   
    346000   900.4592      -1586.284       55325.016      87178.986      0.90394116   
    348000   901.20469      497.52255      58013.788      87520.183      0.90041715   
    350000   911.4549       363.12329      58021.792      86801.959      0.90786746   
    352000   892.7937      -189.44061      56718.244      87394.885      0.90170808   
    354000   919.90708      8.3699436      57583.747      86528.871      0.91073272   
    356000   898.80512      705.84222      58192.181      87627.906      0.89931025   
    358000   892.47903     -798.82781      56185.225      85877.232      0.91764338   
    360000   895.09583      1700.7447      59167.856      83868.949      0.9396168    
    362000   899.25651     -68.430017      57341.544      86299.796      0.91315018   
    364000   897.16023     -255.44181      56927.572      83716.321      0.94132988   
    366000   913.22291     -1072.8078      56105.817      86333.926      0.91278919   
    368000   907.41432      1673.7206      59514.41       84991.639      0.92720502   
    370000   893.8869       643.62846      57821.312      83402.34       0.94487366   
    372000   906.08242      1132.4421      59004.175      85136.228      0.92563032   
    374000   911.06519      688.42134      58313.588      83050.777      0.94887341   
    376000   902.62026      1165.6584      58462.288      85610.247      0.92050515   
    378000   901.40998     -974.76288      55973.026      87494.437      0.90068211   
    380000   906.03878      693.67749      58303.351      85836.346      0.91808048   
    382000   893.91561      1416.4868      58874.279      85045.903      0.9266134    
    384000   884.16749      639.28702      57467.671      84422.03       0.93346102   
    386000   897.42359      252.16889      57343.395      85772.634      0.91876243   
    388000   892.48069      4658.7028      62535.2        84679.614      0.93062155   
    390000   885.34247      982.47328      57508.609      84018.391      0.93794552   
    392000   892.81546     -199.6591       56775.425      84667.115      0.93075894   
    394000   895.04427     -848.55519      56161.668      86593.531      0.91005267   
    396000   892.2503      -408.40587      56700.041      86621.043      0.90976363   
    398000   893.81296     -764.38061      56431.443      83818.049      0.9401874    
    400000   907.32263     -1819.5247      54968.786      84256.548      0.93529436   
    402000   902.2441      -646.18539      56423.829      87537.625      0.90023775   
    404000   905.33199      878.10781      58487.49       84267.172      0.93517644   
    406000   887.80583      108.49436      57147.141      85701.952      0.91952018   
    408000   886.7816      -27.709783      56833.345      85300.749      0.92384504   
    410000   909.59799     -1851.3562      55326.624      84870.112      0.9285327    
    412000   889.89443      462.71581      57361.179      84931.816      0.9278581    
    414000   903.04163      72.395025      57500.605      85658.395      0.91998775   
    416000   885.39879     -711.56423      56150.286      85775.905      0.91872739   
    418000   899.32144     -533.11749      56560.102      87392.595      0.90173171   
    420000   903.30944      1168.6981      58475.251      85315.149      0.92368911   
    422000   888.17354      2308.5518      59591.242      82592.044      0.95414365   
    424000   895.8667       515.29041      57859.063      84785.591      0.92945833   
    426000   888.68975      1267.4652      58498.515      84280.29       0.93503088   
    428000   914.70848     -852.31077      56412.807      81943.019      0.96170088   
    430000   900.06993     -445.61701      57105.76       84215.862      0.93574621   
    432000   901.05105     -778.70527      56213.66       82648.996      0.95348615   
    434000   902.30965      785.77373      58048.557      83998.177      0.93817124   
    436000   913.97474      921.77844      58580.716      84457.948      0.93306404   
    438000   904.60566     -922.42641      56505.806      85669.747      0.91986585   
    440000   917.92547     -421.24054      57282.122      87002.847      0.90577121   
    442000   892.19798     -102.37885      56716.544      88470.097      0.89074927   
    444000   884.37551     -568.78658      56246.465      86133.224      0.91491611   
    446000   915.65679      1207.4716      59225.278      86310.053      0.91304165   
    448000   909.82685     -715.67498      56349.17       88184.684      0.89363221   
    450000   905.32496     -884.91785      56663.325      90705.959      0.86879269   
    452000   895.66892      2727.6202      60990.601      86123.305      0.91502148   
    454000   890.51642     -1375.8813      55211.523      83496.967      0.94380283   
    456000   897.288       -1226.4753      55328.034      85633.856      0.92025138   
    458000   882.57559      160.80324      57010.154      83792.638      0.94047253   
    460000   887.46294     -1664.1874      55404.775      87336.285      0.90231309   
    462000   888.42097     -435.89402      56332.244      83945.858      0.93875595   
    464000   883.30985     -363.40652      56498.375      83507.623      0.9436824    
    466000   888.07535     -1786.2035      54960.931      87567.303      0.89993264   
    468000   900.46863      1626.2108      59386.558      87723.697      0.89832823   
    470000   885.22547     -1329.709       55314.075      88008.925      0.89541685   
    472000   882.79577     -366.748        56614.828      88002.253      0.89548473   
    474000   893.16647      943.03274      58542.379      88781.837      0.88762157   
    476000   907.99142     -559.10592      56853.622      89963.761      0.8759602    
    478000   909.46984     -2430.0775      54576.585      86877.724      0.90707572   
    480000   897.7872       1185.3796      58847.541      88302.888      0.89243597   
    482000   899.6653       1629.9892      59287.324      86980.741      0.90600141   
    484000   891.82242      35.177517      57047.277      84513.725      0.93244823   
    486000   911.46176      609.86459      58218.887      85184.044      0.92511074   
    488000   901.0276       271.31342      57576.558      83496.794      0.94380479   
    490000   916.96814     -156.9277       57342.286      84700.654      0.93039038   
    492000   928.5735      -572.10971      57223.293      86627.17       0.90969928   
    494000   897.51664      1456.893       59079.434      85606.983      0.92054025   
    496000   882.45797     -575.17474      56405.639      87407.896      0.90157385   
    498000   888.35368     -521.55896      56536.547      90977.383      0.86620071   
    500000   898.89064      725.78778      58459.125      89939.798      0.87619358   
Loop time of 317.345 on 32 procs for 500000 steps with 5886 atoms

Performance: 136.130 ns/day, 0.176 hours/ns, 1575.574 timesteps/s, 9.274 Matom-step/s
100.0% CPU use with 32 MPI tasks x no OpenMP threads

MPI task timing breakdown:
Section |  min time  |  avg time  |  max time  |%varavg| %total
---------------------------------------------------------------
Pair    | 132.84     | 151.42     | 166.62     |  77.7 | 47.71
Bond    | 16.003     | 17.34      | 18.747     |  20.7 |  5.46
Neigh   | 59.443     | 59.945     | 60.445     |   6.2 | 18.89
Comm    | 64.151     | 79.817     | 99.245     | 112.0 | 25.15
Output  | 0.0053834  | 0.0063991  | 0.035037   |   6.4 |  0.00
Modify  | 6.6162     | 6.7431     | 6.9208     |   3.1 |  2.12
Other   |            | 2.073      |            |       |  0.65

Nlocal:        183.938 ave         231 max         131 min
Histogram: 3 3 1 2 3 4 7 4 3 2
Nghost:        3564.66 ave        3698 max        3317 min
Histogram: 1 0 2 2 3 5 3 8 3 5
Neighs:        43104.6 ave       62793 max       23777 min
Histogram: 3 0 3 4 2 11 5 1 2 1

Total # of neighbors = 1379346
Ave neighs/atom = 234.34353
Ave special neighs/atom = 10.414883
Neighbor list builds = 41003
Dangerous builds = 0

variable H equal enthalpy
variable V equal vol
print "${T} ${H} ${V}" append H_T.dat
900 58459.1248178812 89939.7983489138

unfix NPT

variable T equal ${T}+${dT}
variable T equal 900+${dT}
variable T equal 900+10
jump SELF loop_T
if "${T} > ${T_end}" then "jump SELF end_loop"
jump SELF end_loop

print "Heating scan finished."
Heating scan finished.
Total wall time: 5:57:20
