PolyDESCTm3 593

5646 atoms
5943 bonds
9720 angles
14088 dihedrals
300 impropers

9 atom types
13 bond types
25 angle types
20 dihedral types
1 improper types

0.000000 39.510000 xlo xhi
0.000000 42.345517 ylo yhi
0.000000 41.304692 zlo zhi
3.102230 2.990483 0.918876 xy xz yz

Masses

   1	            1.008000	# h1
   2	            1.008000	# hc
   3	           12.010000	# c3
   4	           12.010000	# c2
   5	           14.010000	# n3
   6	            1.008000	# h5
   7	           16.000000	# o
   8	            1.008000	# hn
   9	           12.010000	# c

Pair Coeffs # Atom-ID	Epsilon(kcal/mol)	Sigma(Å)	AtomName 

   1	0.0208	2.4219972551363265	# h1
   2	0.0208	2.600176998764394	# hc
   3	0.1078	3.397709531243626	# c3
   4	0.0988	3.3152123099438304	# c2
   5	0.0858	3.36510263815969	# n3
   6	0.0161	2.4472987787315117	# h5
   7	0.1463	3.048120874245357	# o
   8	0.01	1.1064962079303013	# hn
   9	0.0988	3.3152123099438304	# c

Bond Coeffs

   1	412.66	1.34	# c2,n3
   2	511.28	1.019	# hn,n3
   3	300.0	1.364	# c,n3
   4	481.83	1.334	# c2,c2
   5	393.86	1.087	# c2,hc
   6	652.57	1.218	# c,o
   7	261.19	1.465	# c3,n3
   8	232.52	1.538	# c3,c3
   9	375.92	1.097	# c3,h1
  10	219.29	1.442	# n3,n3
  11	255.56	1.51	# c2,c3
  12	375.92	1.097	# c3,hc
  13	361.8	1.105	# c,h5

Angle Coeffs

   1	38.96	107.58	# hc,c3,hc
   2	60.0	107.32	# c,n3,n3
   3	61.18	107.68	# hn,n3,n3
   4	60.0	125.38	# c2,n3,c
   5	65.697	112.35	# c3,n3,c3
   6	65.947	112.0	# c2,c3,c2
   7	71.539	121.81	# c2,c2,c2
   8	40.828	106.4	# hn,n3,hn
   9	60.0	119.15	# hn,n3,c
  10	49.47	119.38	# c2,n3,hn
  11	60.0	113.54	# n3,c,h5
  12	38.802	108.46	# h1,c3,h1
  13	60.0	123.15	# c,n3,c3
  14	65.93	123.65	# h5,c,o
  15	61.163	109.88	# h1,c3,n3
  16	47.475	110.36	# c2,c3,hc
  17	60.0	122.57	# n3,c,o
  18	60.0	114.8	# n3,c,n3
  19	60.0	115.17	# c3,n3,c2
  20	50.527	119.7	# c2,c2,hc
  21	88.404	124.55	# c2,c2,n3
  22	83.305	111.04	# c3,c3,n3
  23	66.132	123.63	# c2,c2,c3
  24	47.782	109.29	# c3,n3,hn
  25	46.868	109.56	# c3,c3,h1

Dihedral Coeffs

1	charmm	9	0	1	0.0	# o,c,n3,n3
2	charmm	9	0	1	0.0	# o,c,n3,c3
3	fourier	1	0.225	3	0	# h1,c3,n3,c3
4	fourier	1	0.3	2	180	# X,c2,n3,X
5	fourier	1	0.217	3	0	# hn,n3,c3,c3
6	charmm	9	0	1	0.0	# c2,n3,c,o
7	charmm	9	0	1	0.0	# n3,c,n3,n3
8	fourier	1	2.25	2	0	# X,n3,n3,X
9	fourier	2	0.36	3	180	1.47	1	0	# hc,c3,c2,c2
10	fourier	1	0.15555555555555556	3	0	# X,c3,c3,X
11	charmm	9	0	1	0.0	# c2,n3,c,h5
12	charmm	9	0	1	0.0	# hn,n3,c,n3
13	fourier	2	0.58	3	0	0.28	2	180	# c3,n3,c3,c3
14	charmm	9	0	1	0.0	# hn,n3,c,o
15	fourier	1	0.3	3	0	# X,c3,n3,X
16	charmm	9	0	1	0.0	# c2,n3,c,n3
17	charmm	9	0	1	0.0	# hn,n3,c,h5
18	fourier	1	6.65	2	180	# X,c2,c2,X
19	charmm	9	0	1	0.0	# n3,c,n3,c3
20	fourier	1	0.112	2	0	# c2,c2,c3,c2

Improper Coeffs

   1	10.5	-1	2	# c,X,X,o

Atoms # Atom-ID	Molecule-ID	Atom-type	Charge	x	y	z	nx	ny	nz 

   1	1	4	0	-7.382	-13.471	50.481
   2	1	4	0	-7.986	-14.655	50.893
   3	1	4	0	-7.203	-12.46	51.426
   4	1	4	0	-8.323	-14.847	52.224
   5	1	4	0	-7.552	-12.651	52.753
   6	1	4	0	-8.089	-13.862	53.179
   7	1	9	0	-7.83	-15.092	55.264
   8	1	3	0	-7.657	-16.043	57.535
   9	1	3	0	-8.256	-17.472	57.497
  10	1	3	0	-10.366	-16.674	58.509
  11	1	4	0	-10.4	-17.84	56.351
  12	1	4	0	-11.538	-17.113	55.955
  13	1	4	0	-9.931	-18.833	55.473
  14	1	4	0	-12.092	-17.301	54.694
  15	1	4	0	-10.492	-18.998	54.213
  16	1	4	0	-11.541	-18.198	53.785
  17	1	9	0	-11.724	-17.191	51.59
  18	1	9	0	-11.294	-13.787	52.084
  19	1	4	0	-11.24	-11.632	50.927
  20	1	4	0	-11.571	-11.157	49.658
  21	1	4	0	-11.348	-10.738	51.995
  22	1	4	0	-12.041	-9.869	49.474
  23	1	4	0	-11.822	-9.445	51.806
  24	1	4	0	-12.203	-8.987	50.542
  25	1	9	0	-13.673	-7.332	49.466
  26	1	4	0	-13.186	-4.889	49.665
  27	1	4	0	-13.828	-3.671	49.88
  28	1	4	0	-11.794	-4.896	49.786
  29	1	4	0	-13.129	-2.534	50.253
  30	1	4	0	-11.095	-3.767	50.194
  31	1	4	0	-11.752	-2.568	50.461
  32	1	3	0	-11.019	-1.367	51.017
  33	1	4	0	-11.2	-1.2	52.523
  34	1	4	0	-10.497	-0.21	53.215
  35	1	4	0	-12.073	-1.987	53.275
  36	1	4	0	-10.687	-0.004	54.575
  37	1	4	0	-12.274	-1.768	54.628
  38	1	4	0	-11.597	-0.762	55.311
  39	1	9	0	-12.729	-1.04	57.491
  40	2	4	0	-12.031	-4.908	43.785
  41	2	4	0	-10.927	-4.148	43.396
  42	2	4	0	-12.568	-4.661	45.049
  43	2	4	0	-10.397	-3.169	44.225
  44	2	4	0	-12.049	-3.673	45.872
  45	2	4	0	-10.961	-2.9	45.471
  46	2	9	0	-10.638	-0.559	46.367
  47	2	3	0	-11.727	-0.384	44.082
  48	2	3	0	-12.627	0.545	43.247
  49	2	3	0	-13.787	-1.221	41.991
  50	2	4	0	-11.823	-0.045	41.119
  51	2	4	0	-11.239	1.146	40.652
  52	2	4	0	-11.183	-1.254	40.8
  53	2	4	0	-10.046	1.123	39.934
  54	2	4	0	-9.981	-1.247	40.104
  55	2	4	0	-9.384	-0.069	39.673
  56	2	9	0	-6.983	0.459	39.391
  57	2	9	0	-5.972	1.355	42.577
  58	2	4	0	-4.055	-0.073	43.285
  59	2	4	0	-4.524	-1.316	42.854
  60	2	4	0	-2.763	-0.042	43.814
  61	2	4	0	-3.76	-2.466	42.984
  62	2	4	0	-2.007	-1.199	43.95
  63	2	4	0	-2.494	-2.448	43.57
  64	2	9	0	-0.581	-3.917	44.268
  65	2	4	0	-1.392	-6.137	44.903
  66	2	4	0	-1.995	-6.818	43.852
  67	2	4	0	-1.922	-6.331	46.176
  68	2	4	0	-3.159	-7.544	44.028
  69	2	4	0	-3.094	-7.058	46.36
  70	2	4	0	-3.767	-7.628	45.277
  71	2	3	0	-5.155	-8.215	45.395
  72	2	4	0	-5.192	-9.622	45.922
  73	2	4	0	-4.922	-10.729	45.121
  74	2	4	0	-5.554	-9.851	47.243
  75	2	4	0	-5.002	-12.017	45.633
  76	2	4	0	-5.635	-11.136	47.748
  77	2	4	0	-5.361	-12.256	46.959
  78	2	9	0	-6.029	-14.073	48.524
  79	2	4	0	-14.957	8.409	32.078
  80	2	4	0	-14.991	8.466	33.469
  81	2	4	0	-15.407	7.24	31.464
  82	2	4	0	-15.456	7.395	34.218
  83	2	4	0	-15.87	6.17	32.213
  84	2	4	0	-15.918	6.229	33.606
  85	2	9	0	-17.184	5.173	35.439
  86	2	3	0	-17.884	2.83	34.988
  87	2	3	0	-18.692	2.99	33.684
  88	2	3	0	-20.335	1.191	33.708
  89	2	4	0	-19.06	1.628	31.65
  90	2	4	0	-17.938	2.066	30.921
  91	2	4	0	-20.119	1.087	30.901
  92	2	4	0	-17.899	1.973	29.528
  93	2	4	0	-20.066	1.032	29.516
  94	2	4	0	-18.956	1.449	28.79
  95	2	9	0	-17.894	1.26	26.55
  96	2	9	0	-18.902	-1.402	24.57
  97	2	4	0	-18.313	-3.595	25.605
  98	2	4	0	-19.257	-4.117	26.48
  99	2	4	0	-16.987	-3.961	25.817
 100	2	4	0	-18.89	-4.877	27.581
 101	2	4	0	-16.621	-4.748	26.904
 102	2	4	0	-17.559	-5.191	27.843
 103	2	9	0	-17.727	-6.018	30.199
 104	2	4	0	-17.007	-6.537	32.55
 105	2	4	0	-15.96	-7.048	33.322
 106	2	4	0	-18.148	-6.153	33.247
 107	2	4	0	-16.056	-7.206	34.7
 108	2	4	0	-18.257	-6.323	34.619
 109	2	4	0	-17.217	-6.855	35.383
 110	2	3	0	-17.445	-7.067	36.872
 111	2	4	0	-16.253	-6.979	37.811
 112	2	4	0	-15.791	-8.12	38.465
 113	2	4	0	-15.687	-5.76	38.184
 114	2	4	0	-14.866	-8.038	39.495
 115	2	4	0	-14.757	-5.68	39.215
 116	2	4	0	-14.369	-6.811	39.938
 117	2	9	0	-12.887	-5.751	41.639
 118	2	4	0	3.405	16.227	15.787
 119	2	4	0	2.77	15.852	14.601
 120	2	4	0	3.995	17.488	15.826
 121	2	4	0	2.724	16.701	13.507
 122	2	4	0	3.911	18.356	14.746
 123	2	4	0	3.28	17.975	13.567
 124	2	9	0	2.439	19.965	12.407
 125	2	3	0	1.538	19.451	10.218
 126	2	3	0	0.281	18.67	10.654
 127	2	3	0	-0.529	18.269	8.396
 128	2	4	0	-1.244	16.865	10.226
 129	2	4	0	-0.972	15.961	11.267
 130	2	4	0	-2.566	16.914	9.747
 131	2	4	0	-1.983	15.174	11.813
 132	2	4	0	-3.562	16.135	10.324
 133	2	4	0	-3.3	15.264	11.374
 134	2	9	0	-4.292	13.434	12.705
 135	2	9	0	-5.959	14.303	15.583
 136	2	4	0	-6.311	14.336	18.025
 137	2	4	0	-7.641	13.927	18.019
 138	2	4	0	-5.767	14.726	19.253
 139	2	4	0	-8.378	13.871	19.185
 140	2	4	0	-6.516	14.694	20.423
 141	2	4	0	-7.835	14.251	20.406
 142	2	9	0	-8.432	13.126	22.447
 143	2	4	0	-9.706	11.21	23.36
 144	2	4	0	-10.913	10.821	23.942
 145	2	4	0	-8.698	10.25	23.303
 146	2	4	0	-11.076	9.561	24.499
 147	2	4	0	-8.856	8.99	23.857
 148	2	4	0	-10.035	8.631	24.502
 149	2	3	0	-10.151	7.3	25.215
 150	2	4	0	-10.781	7.485	26.579
 151	2	4	0	-10.296	8.435	27.481
 152	2	4	0	-11.905	6.753	26.956
 153	2	4	0	-10.959	8.695	28.672
 154	2	4	0	-12.556	7.003	28.153
 155	2	4	0	-12.118	8.005	29.015
 156	2	9	0	-13.572	9.467	30.332
 157	2	4	0	-17.385	11.622	21.781
 158	2	4	0	-17.585	11.235	20.455
 159	2	4	0	-17.167	12.979	22.018
 160	2	4	0	-17.646	12.17	19.428
 161	2	4	0	-17.228	13.912	20.992
 162	2	4	0	-17.513	13.538	19.679
 163	2	9	0	-18.397	15.646	18.773
 164	2	3	0	-17.553	16.668	16.713
 165	2	3	0	-16.411	17.521	17.298
 166	2	3	0	-15.386	18.704	15.36
 167	2	4	0	-14.485	16.528	16.124
 168	2	4	0	-14.613	15.34	16.869
 169	2	4	0	-13.546	16.515	15.077
 170	2	4	0	-13.922	14.19	16.509
 171	2	4	0	-12.854	15.355	14.745
 172	2	4	0	-13.053	14.159	15.424
 173	2	9	0	-11.848	12.647	13.886
 174	2	9	0	-11.259	9.36	12.72
 175	2	4	0	-8.832	8.938	12.332
 176	2	4	0	-7.908	7.963	12.705
 177	2	4	0	-8.334	10.179	11.944
 178	2	4	0	-6.545	8.213	12.699
 179	2	4	0	-6.971	10.427	11.937
 180	2	4	0	-6.041	9.454	12.311
 181	2	9	0	-3.628	9.158	12.872
 182	2	4	0	-1.397	9.752	13.745
 183	2	4	0	-1.392	8.985	14.909
 184	2	4	0	-0.201	10.36	13.37
 185	2	4	0	-0.231	8.806	15.644
 186	2	4	0	0.96	10.179	14.103
 187	2	4	0	0.966	9.397	15.256
 188	2	3	0	2.221	9.183	16.058
 189	2	4	0	2.663	10.467	16.711
 190	2	4	0	3.475	11.361	16.02
 191	2	4	0	2.322	10.789	18.024
 192	2	4	0	3.965	12.499	16.631
 193	2	4	0	2.794	11.944	18.632
 194	2	4	0	3.634	12.819	17.949
 195	2	9	0	4.24	15.178	17.911
 196	2	4	0	-20.651	-0.589	20.255
 197	2	4	0	-19.282	-0.36	20.364
 198	2	4	0	-21.227	-0.415	18.994
 199	2	4	0	-18.527	0.045	19.279
 200	2	4	0	-20.473	0.016	17.909
 201	2	4	0	-19.109	0.278	18.033
 202	2	9	0	-18.637	1.692	16.052
 203	2	3	0	-16.479	2.825	16.49
 204	2	3	0	-15.377	1.786	16.221
 205	2	3	0	-14.355	1.31	18.411
 206	2	4	0	-13.385	3.059	16.941
 207	2	4	0	-13.48	3.889	15.807
 208	2	4	0	-12.453	3.446	17.923
 209	2	4	0	-12.723	5.049	15.697
 210	2	4	0	-11.691	4.603	17.78
 211	2	4	0	-11.83	5.44	16.684
 212	2	9	0	-11.626	7.833	16.201
 213	2	9	0	-14.27	9.552	15.419
 214	2	4	0	-16.591	8.684	15.037
 215	2	4	0	-16.362	7.314	14.903
 216	2	4	0	-17.921	9.097	15.143
 217	2	4	0	-17.405	6.402	14.882
 218	2	4	0	-18.963	8.185	15.151
 219	2	4	0	-18.723	6.82	15.02
 220	2	9	0	-20.015	5.123	16.142
 221	2	4	0	-21.839	4.526	17.591
 222	2	4	0	-22.942	5.291	17.972
 223	2	4	0	-21.249	3.713	18.556
 224	2	4	0	-23.321	5.375	19.303
 225	2	4	0	-21.632	3.791	19.885
 226	2	4	0	-22.628	4.677	20.291
 227	2	3	0	-22.82	5.004	21.745
 228	2	4	0	-21.907	6.168	22.035
 229	2	4	0	-20.627	6.003	22.562
 230	2	4	0	-22.286	7.457	21.669
 231	2	4	0	-19.762	7.082	22.704
 232	2	4	0	-21.404	8.519	21.774
 233	2	4	0	-20.121	8.365	22.289
 234	2	9	0	-18.229	9.706	23.165
 235	2	4	0	-23.062	27.085	26.388
 236	2	4	0	-23.475	26.362	27.504
 237	2	4	0	-22.598	26.343	25.297
 238	2	4	0	-23.289	24.993	27.589
 239	2	4	0	-22.442	24.965	25.367
 240	2	4	0	-22.724	24.278	26.542
 241	2	9	0	-23.101	21.811	26.37
 242	2	3	0	-25.396	22.724	26.419
 243	2	3	0	-25.658	22.433	27.913
 244	2	3	0	-27.471	20.759	27.842
 245	2	4	0	-25.52	20.393	29.328
 246	2	4	0	-26.312	19.61	30.185
 247	2	4	0	-24.153	20.49	29.652
 248	2	4	0	-25.77	19.007	31.315
 249	2	4	0	-23.628	19.856	30.778
 250	2	4	0	-24.428	19.113	31.637
 251	2	9	0	-22.88	17.699	32.966
 252	2	9	0	-21.789	15.381	30.605
 253	2	4	0	-20.921	13.235	29.695
 254	2	4	0	-21.004	11.887	30.031
 255	2	4	0	-20.602	13.535	28.372
 256	2	4	0	-20.789	10.882	29.105
 257	2	4	0	-20.364	12.525	27.443
 258	2	4	0	-20.467	11.172	27.78
 259	2	9	0	-20.834	8.94	26.818
 260	2	4	0	-20.743	6.67	26.021
 261	2	4	0	-19.971	5.723	26.686
 262	2	4	0	-21.973	6.261	25.513
 263	2	4	0	-20.45	4.441	26.915
 264	2	4	0	-22.447	4.976	25.734
 265	2	4	0	-21.712	4.049	26.472
 266	2	3	0	-22.31	2.71	26.861
 267	2	4	0	-22.487	1.692	25.749
 268	2	4	0	-22.108	1.92	24.43
 269	2	4	0	-23.1	0.466	26.033
 270	2	4	0	-22.352	0.983	23.44
 271	2	4	0	-23.32	-0.48	25.043
 272	2	4	0	-22.949	-0.248	23.721
 273	2	9	0	-22.62	-1.386	21.539
 274	2	4	0	-29.222	12.68	36.014
 275	2	4	0	-30.025	13.565	35.298
 276	2	4	0	-29.181	11.355	35.594
 277	2	4	0	-30.773	13.143	34.21
 278	2	4	0	-29.931	10.93	34.506
 279	2	4	0	-30.748	11.812	33.792
 280	2	9	0	-32.04	10.192	32.47
 281	2	3	0	-33.244	8.766	30.888
 282	2	3	0	-33.522	8.473	29.397
 283	2	3	0	-35.598	9.721	29.093
 284	2	4	0	-33.501	10.699	28.388
 285	2	4	0	-32.306	10.686	27.653
 286	2	4	0	-33.922	11.947	28.878
 287	2	4	0	-31.559	11.848	27.48
 288	2	4	0	-33.171	13.098	28.674
 289	2	4	0	-31.952	13.076	28.003
 290	2	9	0	-31.294	15.427	28.349
 291	2	9	0	-30.279	18.615	28.131
 292	2	4	0	-31.144	20.907	28.439
 293	2	4	0	-31.574	22.072	27.801
 294	2	4	0	-31.095	20.931	29.832
 295	2	4	0	-32.019	23.166	28.532
 296	2	4	0	-31.526	22.03	30.557
 297	2	4	0	-32.049	23.153	29.926
 298	2	9	0	-32.481	25.518	30.602
 299	2	4	0	-31.145	27.248	29.426
 300	2	4	0	-29.826	27.519	29.08
 301	2	4	0	-32.052	28.302	29.338
 302	2	4	0	-29.42	28.784	28.694
 303	2	4	0	-31.649	29.568	28.939
 304	2	4	0	-30.317	29.854	28.635
 305	2	3	0	-29.912	31.282	28.277
 306	2	4	0	-28.462	31.33	27.883
 307	2	4	0	-27.453	31.165	28.835
 308	2	4	0	-28.094	31.351	26.542
 309	2	4	0	-26.161	30.847	28.449
 310	2	4	0	-26.79	31.08	26.166
 311	2	4	0	-25.815	30.731	27.105
 312	2	9	0	-23.792	29.295	27.217
 313	2	4	0	-23.857	24.466	40.472
 314	2	4	0	-22.785	25.292	40.814
 315	2	4	0	-25.018	25.073	39.991
 316	2	4	0	-22.893	26.674	40.727
 317	2	4	0	-25.122	26.451	39.906
 318	2	4	0	-24.074	27.275	40.301
 319	2	9	0	-24.571	29.358	41.444
 320	2	3	0	-24.808	31.456	40.131
 321	2	3	0	-26.144	31.372	39.363
 322	2	3	0	-25.258	32.518	37.356
 323	2	4	0	-25.69	30.088	37.375
 324	2	4	0	-26.591	29.02	37.536
 325	2	4	0	-24.498	29.819	36.684
 326	2	4	0	-26.312	27.759	37.013
 327	2	4	0	-24.243	28.547	36.179
 328	2	4	0	-25.14	27.492	36.313
 329	2	9	0	-24.138	25.935	34.692
 330	2	9	0	-24.387	23.09	32.839
 331	2	4	0	-24.564	21.5	34.671
 332	2	4	0	-23.581	21.775	35.617
 333	2	4	0	-25.765	20.941	35.098
 334	2	4	0	-23.814	21.545	36.959
 335	2	4	0	-25.995	20.712	36.446
 336	2	4	0	-25.024	21.017	37.399
 337	2	9	0	-26.285	21.066	39.518
 338	2	4	0	-27.097	20.258	41.698
 339	2	4	0	-26.707	19.716	42.927
 340	2	4	0	-28.45	20.175	41.359
 341	2	4	0	-27.583	18.95	43.679
 342	2	4	0	-29.318	19.379	42.085
 343	2	4	0	-28.87	18.683	43.209
 344	2	3	0	-29.597	17.447	43.654
 345	2	4	0	-29.271	16.456	42.556
 346	2	4	0	-30.247	15.989	41.681
 347	2	4	0	-27.944	16.124	42.264
 348	2	4	0	-29.905	15.244	40.56
 349	2	4	0	-27.608	15.382	41.145
 350	2	4	0	-28.58	14.927	40.259
 351	2	9	0	-28.953	13.421	38.336
 352	2	4	0	-1.028	18.69	40.522
 353	2	4	0	0.125	19.273	39.999
 354	2	4	0	-1.362	18.985	41.841
 355	2	4	0	0.961	20.051	40.79
 356	2	4	0	-0.532	19.774	42.625
 357	2	4	0	0.664	20.297	42.131
 358	2	9	0	1.19	22.015	43.804
 359	2	3	0	3.362	21.782	45.082
 360	2	3	0	3.92	22.126	46.497
 361	2	3	0	3.374	22.758	48.814
 362	2	4	0	1.743	21.388	47.567
 363	2	4	0	1.434	20.305	46.73
 364	2	4	0	0.669	21.964	48.265
 365	2	4	0	0.118	19.973	46.429
 366	2	4	0	-0.643	21.601	47.972
 367	2	4	0	-0.95	20.651	47.001
 368	2	9	0	-2.822	19.562	45.763
 369	2	9	0	-6.015	20.594	46.08
 370	2	4	0	-8.252	21.581	46.008
 371	2	4	0	-8.945	22.566	45.304
 372	2	4	0	-8.996	20.524	46.536
 373	2	4	0	-10.302	22.444	45.042
 374	2	4	0	-10.355	20.407	46.288
 375	2	4	0	-11.019	21.341	45.497
 376	2	9	0	-12.726	20.734	43.882
 377	2	4	0	-14.655	19.885	42.593
 378	2	4	0	-15.604	18.87	42.707
 379	2	4	0	-14.413	20.402	41.323
 380	2	4	0	-16.38	18.486	41.623
 381	2	4	0	-15.182	20.015	40.237
 382	2	4	0	-16.226	19.104	40.384
 383	2	3	0	-17.239	18.915	39.283
 384	2	4	0	-18.394	19.901	39.439
 385	2	4	0	-18.299	21.086	40.172
 386	2	4	0	-19.621	19.639	38.83
 387	2	4	0	-19.372	21.955	40.294
 388	2	4	0	-20.704	20.492	38.978
 389	2	4	0	-20.606	21.667	39.722
 390	2	9	0	-22.899	22.146	40.408
 391	2	4	0	23.014	8.853	49.454
 392	2	4	0	23.753	9.416	48.412
 393	2	4	0	22.243	9.717	50.225
 394	2	4	0	23.726	10.783	48.159
 395	2	4	0	22.235	11.081	49.993
 396	2	4	0	22.96	11.641	48.945
 397	2	9	0	21.696	13.662	48.509
 398	2	3	0	22.432	15.822	49.492
 399	2	3	0	21.685	16.135	50.822
 400	2	3	0	20.885	18.452	50.522
 401	2	4	0	19.474	16.531	49.926
 402	2	4	0	18.988	15.229	50.142
 403	2	4	0	18.898	17.253	48.865
 404	2	4	0	18.088	14.646	49.256
 405	2	4	0	17.997	16.646	47.994
 406	2	4	0	17.623	15.312	48.127
 407	2	9	0	16.919	14.842	45.834
 408	2	9	0	14.693	14.172	43.507
 409	2	4	0	12.429	13.2	43.786
 410	2	4	0	11.899	14.183	44.62
 411	2	4	0	11.615	12.104	43.497
 412	2	4	0	10.586	14.122	45.059
 413	2	4	0	10.304	12.04	43.948
 414	2	4	0	9.739	13.072	44.7
 415	2	9	0	7.66	13.973	45.689
 416	2	4	0	5.452	13.501	44.537
 417	2	4	0	4.09	13.64	44.793
 418	2	4	0	5.794	12.74	43.416
 419	2	4	0	3.132	12.993	44.033
 420	2	4	0	4.83	12.101	42.641
 421	2	4	0	3.472	12.2	42.938
 422	2	3	0	2.403	11.497	42.115
 423	2	4	0	1.361	12.496	41.674
 424	2	4	0	0.322	12.884	42.52
 425	2	4	0	1.469	13.153	40.45
 426	2	4	0	-0.458	13.99	42.227
 427	2	4	0	0.66	14.237	40.139
 428	2	4	0	-0.266	14.722	41.06
 429	2	9	0	-1.637	16.413	39.848
 430	2	4	0	23.419	-11.208	46.957
 431	2	4	0	22.333	-11.507	47.781
 432	2	4	0	24.525	-12.06	47.03
 433	2	4	0	22.3	-12.664	48.547
 434	2	4	0	24.495	-13.216	47.802
 435	2	4	0	23.358	-13.569	48.53
 436	2	9	0	24.099	-15.436	50.002
 437	2	3	0	24.242	-13.626	51.621
 438	2	3	0	25.085	-12.788	52.61
 439	2	3	0	25.101	-10.911	54.2
 440	2	4	0	23.286	-11.256	52.683
 441	2	4	0	21.999	-11.815	52.68
 442	2	4	0	23.535	-10.164	51.831
 443	2	4	0	21.012	-11.307	51.848
 444	2	4	0	22.52	-9.657	51.025
 445	2	4	0	21.246	-10.214	51.024
 446	2	9	0	19.003	-9.298	50.615
 447	2	9	0	17.459	-8.129	53.4
 448	2	4	0	18.224	-6.254	52.027
 449	2	4	0	17.576	-6.133	50.802
 450	2	4	0	19.551	-5.844	52.105
 451	2	4	0	18.258	-5.683	49.681
 452	2	4	0	20.229	-5.388	50.985
 453	2	4	0	19.607	-5.319	49.737
 454	2	9	0	21.545	-4.569	48.373
 455	2	4	0	22.754	-2.802	47.239
 456	2	4	0	22.896	-1.928	48.316
 457	2	4	0	23.569	-2.602	46.129
 458	2	4	0	23.801	-0.883	48.282
 459	2	4	0	24.474	-1.551	46.092
 460	2	4	0	24.596	-0.66	47.16
 461	2	3	0	25.567	0.498	47.094
 462	2	4	0	25.031	1.75	47.742
 463	2	4	0	23.953	2.45	47.201
 464	2	4	0	25.612	2.251	48.903
 465	2	4	0	23.479	3.609	47.799
 466	2	4	0	25.143	3.416	49.489
 467	2	4	0	24.073	4.125	48.948
 468	2	9	0	23.262	6.451	48.956
 469	2	4	0	12.178	-12.317	45.605
 470	2	4	0	12.111	-12.57	46.971
 471	2	4	0	13.427	-12.335	44.988
 472	2	4	0	13.256	-12.862	47.694
 473	2	4	0	14.569	-12.634	45.709
 474	2	4	0	14.5	-12.932	47.068
 475	2	9	0	15.901	-14.303	48.617
 476	2	3	0	14.2	-15.994	47.738
 477	2	3	0	14.739	-17.202	46.909
 478	2	3	0	14.07	-16.741	44.58
 479	2	4	0	16.298	-16.058	45.368
 480	2	4	0	16.497	-15.309	44.195
 481	2	4	0	17.259	-15.903	46.382
 482	2	4	0	17.556	-14.416	44.091
 483	2	4	0	18.287	-14.973	46.27
 484	2	4	0	18.466	-14.21	45.122
 485	2	9	0	20.789	-13.32	45.348
 486	2	9	0	22.127	-16.359	46.161
 487	2	4	0	24.606	-16.668	46.215
 488	2	4	0	25.086	-15.799	45.237
 489	2	4	0	25.526	-17.157	47.139
 490	2	4	0	26.422	-15.423	45.201
 491	2	4	0	26.859	-16.784	47.103
 492	2	4	0	27.342	-15.904	46.137
 493	2	9	0	29.774	-16.061	46.624
 494	2	4	0	30.983	-13.988	46.124
 495	2	4	0	31.459	-13.681	44.854
 496	2	4	0	30.521	-12.943	46.915
 497	2	4	0	31.43	-12.381	44.371
 498	2	4	0	30.523	-11.639	46.45
 499	2	4	0	30.953	-11.333	45.156
 500	2	3	0	30.818	-9.931	44.605
 501	2	4	0	29.387	-9.512	44.823
 502	2	4	0	28.36	-10.165	44.144
 503	2	4	0	29.034	-8.589	45.808
 504	2	4	0	27.039	-9.998	44.523
 505	2	4	0	27.708	-8.411	46.173
 506	2	4	0	26.692	-9.168	45.592
 507	2	9	0	24.283	-9.463	45.392
 508	2	4	0	29.933	-5.907	38.106
 509	2	4	0	30.23	-6.591	36.93
 510	2	4	0	29.259	-6.603	39.109
 511	2	4	0	29.825	-7.899	36.745
 512	2	4	0	28.845	-7.914	38.921
 513	2	4	0	29.101	-8.576	37.722
 514	2	9	0	28.807	-10.988	38.179
 515	2	3	0	28.621	-12.317	36.073
 516	2	3	0	27.358	-11.889	35.28
 517	2	3	0	27.945	-9.744	34.211
 518	2	4	0	25.661	-10.36	34.789
 519	2	4	0	25.204	-10.206	33.47
 520	2	4	0	24.689	-10.46	35.804
 521	2	4	0	23.841	-10.141	33.201
 522	2	4	0	23.327	-10.394	35.504
 523	2	4	0	22.881	-10.219	34.2
 524	2	9	0	20.868	-10.883	33.001
 525	2	9	0	17.816	-10.197	33.336
 526	2	4	0	17.415	-9.312	35.582
 527	2	4	0	17.913	-8.31	36.413
 528	2	4	0	16.119	-9.773	35.812
 529	2	4	0	17.162	-7.826	37.473
 530	2	4	0	15.373	-9.299	36.878
 531	2	4	0	15.898	-8.346	37.746
 532	2	9	0	15.419	-8.749	40.058
 533	2	4	0	14.078	-7.26	41.584
 534	2	4	0	12.895	-6.936	40.92
 535	2	4	0	14.402	-6.525	42.724
 536	2	4	0	11.99	-6.043	41.478
 537	2	4	0	13.508	-5.625	43.275
 538	2	4	0	12.247	-5.43	42.707
 539	2	3	0	11.136	-4.842	43.541
 540	2	4	0	10.651	-6.042	44.318
 541	2	4	0	9.664	-6.878	43.794
 542	2	4	0	11.339	-6.497	45.445
 543	2	4	0	9.487	-8.167	44.276
 544	2	4	0	11.158	-7.784	45.927
 545	2	4	0	10.305	-8.683	45.285
 546	2	9	0	10.199	-11.068	44.72
 547	2	4	0	43.067	5.283	18.497
 548	2	4	0	43.826	4.902	19.605
 549	2	4	0	41.718	4.946	18.48
 550	2	4	0	43.229	4.313	20.709
 551	2	4	0	41.126	4.331	19.571
 552	2	4	0	41.858	4.068	20.727
 553	2	9	0	41.059	4.538	22.943
 554	2	3	0	39.761	2.856	24.274
 555	2	3	0	39.12	2.762	25.675
 556	2	3	0	41.238	2.583	26.932
 557	2	4	0	39.975	4.689	26.827
 558	2	4	0	38.787	5.41	27.047
 559	2	4	0	41.152	5.429	26.613
 560	2	4	0	38.79	6.802	27.07
 561	2	4	0	41.124	6.818	26.64
 562	2	4	0	39.961	7.527	26.893
 563	2	9	0	40.198	9.507	28.291
 564	2	9	0	38.668	7.673	30.713
 565	2	4	0	37.429	7.214	32.804
 566	2	4	0	37.799	5.884	32.994
 567	2	4	0	36.464	7.743	33.663
 568	2	4	0	37.193	5.109	33.967
 569	2	4	0	35.847	6.965	34.63
 570	2	4	0	36.181	5.62	34.781
 571	2	9	0	34.548	4.867	36.541
 572	2	4	0	34.896	2.5	36.909
 573	2	4	0	34.38	1.704	35.893
 574	2	4	0	36.095	2.112	37.504
 575	2	4	0	35.031	0.551	35.493
 576	2	4	0	36.742	0.947	37.113
 577	2	4	0	36.214	0.138	36.106
 578	2	3	0	36.777	-1.226	35.787
 579	2	4	0	35.776	-2.239	36.302
 580	2	4	0	35.384	-3.358	35.568
 581	2	4	0	35.161	-2.04	37.539
 582	2	4	0	34.369	-4.191	36.027
 583	2	4	0	34.112	-2.83	37.962
 584	2	4	0	33.643	-3.88	37.18
 585	2	9	0	31.323	-3.865	37.854
 586	2	4	0	73.989	24.331	23.414
 587	2	4	0	73.662	24.115	24.756
 588	2	4	0	73.407	23.451	22.495
 589	2	4	0	72.805	23.098	25.155
 590	2	4	0	72.543	22.436	22.893
 591	2	4	0	72.203	22.249	24.232
 592	2	9	0	71.413	20.367	25.618
 593	2	3	0	68.967	19.832	25.559
 594	2	3	0	68.555	19.34	24.162
 595	2	3	0	67.239	21.311	23.505
 596	2	4	0	66.057	19.082	23.63
 597	2	4	0	64.801	19.692	23.444
 598	2	4	0	66.063	17.676	23.717
 599	2	4	0	63.633	18.937	23.362
 600	2	4	0	64.884	16.941	23.609
 601	2	4	0	63.647	17.55	23.433
 602	2	9	0	61.282	17.053	23.891
 603	2	9	0	58.312	16.228	22.341
 604	2	4	0	56.662	15.855	20.51
 605	2	4	0	56.599	15.72	19.122
 606	2	4	0	55.544	15.449	21.236
 607	2	4	0	55.482	15.2	18.49
 608	2	4	0	54.43	14.917	20.6
 609	2	4	0	54.364	14.779	19.213
 610	2	9	0	52.947	13.956	17.341
 611	2	4	0	50.705	13.058	17.928
 612	2	4	0	50.829	12.265	19.067
 613	2	4	0	49.449	13.579	17.632
 614	2	4	0	49.737	12.031	19.891
 615	2	4	0	48.361	13.357	18.459
 616	2	4	0	48.486	12.576	19.608
 617	2	3	0	47.319	12.325	20.531
 618	2	4	0	46.498	11.143	20.079
 619	2	4	0	45.868	11.138	18.839
 620	2	4	0	46.329	10.02	20.885
 621	2	4	0	45.11	10.057	18.425
 622	2	4	0	45.559	8.943	20.47
 623	2	4	0	44.938	8.932	19.224
 624	2	9	0	44.25	7.221	17.58
 625	2	4	0	52.813	33.508	18.522
 626	2	4	0	53.819	33.35	19.472
 627	2	4	0	53.176	33.37	17.184
 628	2	4	0	55.12	33.024	19.117
 629	2	4	0	54.482	33.068	16.828
 630	2	4	0	55.483	32.883	17.78
 631	2	9	0	57.195	31.898	16.329
 632	2	3	0	58.877	33.572	15.689
 633	2	3	0	60.194	33.887	14.931
 634	2	3	0	61.805	34.483	16.712
 635	2	4	0	61.615	32.17	15.902
 636	2	4	0	61.317	31.207	14.92
 637	2	4	0	62.072	31.693	17.145
 638	2	4	0	61.43	29.85	15.194
 639	2	4	0	62.178	30.328	17.392
 640	2	4	0	61.849	29.379	16.431
 641	2	9	0	62.604	27.221	15.74
 642	2	9	0	65.816	28.386	16.12
 643	2	4	0	67.308	27.729	17.977
 644	2	4	0	67.419	27.024	19.176
 645	2	4	0	68.492	28.234	17.442
 646	2	4	0	68.65	26.834	19.788
 647	2	4	0	69.723	28.006	18.03
 648	2	4	0	69.83	27.314	19.23
 649	2	9	0	71.699	27.817	20.786
 650	2	4	0	71.447	29.395	22.619
 651	2	4	0	71.29	30.78	22.616
 652	2	4	0	72.193	28.836	23.648
 653	2	4	0	71.998	31.584	23.501
 654	2	4	0	72.795	29.624	24.61
 655	2	4	0	72.809	31.02	24.488
 656	2	3	0	73.955	31.787	25.114
 657	2	4	0	75.152	31.035	24.573
 658	2	4	0	75.855	30.128	25.377
 659	2	4	0	75.207	30.842	23.184
 660	2	4	0	76.328	28.936	24.84
 661	2	4	0	75.633	29.632	22.67
 662	2	4	0	76.068	28.603	23.507
 663	2	9	0	75.587	26.22	23.7
 664	2	4	0	46.869	44.405	10.789
 665	2	4	0	47.852	44.951	9.966
 666	2	4	0	47.25	43.324	11.583
 667	2	4	0	49.16	44.489	9.984
 668	2	4	0	48.555	42.854	11.591
 669	2	4	0	49.555	43.434	10.807
 670	2	9	0	52.037	43.27	10.323
 671	2	3	0	53.154	44.34	8.329
 672	2	3	0	54.501	43.572	8.366
 673	2	3	0	53.873	41.842	6.645
 674	2	4	0	55.047	41.15	8.764
 675	2	4	0	54.53	39.845	8.741
 676	2	4	0	56.123	41.406	9.636
 677	2	4	0	55.059	38.855	9.562
 678	2	4	0	56.643	40.397	10.442
 679	2	4	0	56.112	39.114	10.43
 680	2	9	0	56.498	38.067	12.643
 681	2	9	0	54.196	40.182	13.961
 682	2	4	0	52.71	41.999	14.668
 683	2	4	0	52.621	41.715	16.031
 684	2	4	0	51.776	42.899	14.158
 685	2	4	0	51.58	42.211	16.803
 686	2	4	0	50.696	43.339	14.906
 687	2	4	0	50.551	42.967	16.238
 688	2	9	0	49.238	43.506	18.263
 689	2	4	0	47.731	41.585	18.627
 690	2	4	0	46.457	41.22	19.061
 691	2	4	0	48.449	40.626	17.91
 692	2	4	0	45.938	39.956	18.808
 693	2	4	0	47.924	39.378	17.63
 694	2	4	0	46.667	39.005	18.095
 695	2	3	0	46.16	37.601	17.85
 696	2	4	0	47.119	36.529	18.356
 697	2	4	0	47.088	35.247	17.802
 698	2	4	0	48.033	36.756	19.386
 699	2	4	0	47.874	34.22	18.306
 700	2	4	0	48.85	35.742	19.859
 701	2	4	0	48.746	34.445	19.365
 702	2	9	0	50.801	33.155	19.87
 703	2	4	0	43.834	25.193	9.751
 704	2	4	0	43.21	24.042	10.24
 705	2	4	0	44.779	25.79	10.586
 706	2	4	0	43.512	23.523	11.494
 707	2	4	0	45.073	25.281	11.841
 708	2	4	0	44.437	24.142	12.327
 709	2	9	0	44.58	24.444	14.72
 710	2	3	0	46.161	22.99	16.06
 711	2	3	0	46.957	23.106	17.393
 712	2	3	0	49.323	23.715	16.973
 713	2	4	0	47.54	25.346	16.93
 714	2	4	0	47.858	25.721	15.614
 715	2	4	0	46.629	26.149	17.642
 716	2	4	0	47.171	26.758	15.004
 717	2	4	0	45.979	27.209	17.016
 718	2	4	0	46.19	27.485	15.67
 719	2	9	0	44.917	29.588	15.275
 720	2	9	0	45.084	32.168	13.459
 721	2	4	0	44.429	33.995	14.989
 722	2	4	0	44.077	34.283	16.308
 723	2	4	0	44.161	34.981	14.039
 724	2	4	0	43.455	35.475	16.65
 725	2	4	0	43.517	36.162	14.377
 726	2	4	0	43.111	36.424	15.686
 727	2	9	0	41.329	37.598	16.878
 728	2	4	0	40.296	39.685	15.984
 729	2	4	0	39.25	40.029	15.133
 730	2	4	0	41.281	40.642	16.219
 731	2	4	0	39.188	41.282	14.543
 732	2	4	0	41.21	41.903	15.644
 733	2	4	0	40.168	42.247	14.782
 734	2	3	0	40.009	43.645	14.217
 735	2	4	0	41.071	44.189	13.275
 736	2	4	0	40.739	44.547	11.967
 737	2	4	0	42.354	44.515	13.713
 738	2	4	0	41.629	45.234	11.154
 739	2	4	0	43.247	45.19	12.895
 740	2	4	0	42.898	45.585	11.606
 741	2	9	0	45.08	46.112	10.549
 742	3	4	0	42.355	38.844	-1.305
 743	3	4	0	42.282	37.522	-1.781
 744	3	4	0	41.289	39.332	-0.527
 745	3	4	0	41.19	36.723	-1.456
 746	3	4	0	40.208	38.51	-0.23
 747	3	4	0	40.138	37.194	-0.676
 748	3	9	0	37.728	36.73	-0.527
 749	3	3	0	37.945	37.55	-2.812
 750	3	3	0	37.248	36.472	-3.659
 751	3	3	0	38.642	34.439	-3.454
 752	3	4	0	36.189	34.326	-3.522
 753	3	4	0	36.206	33.267	-4.441
 754	3	4	0	34.962	34.627	-2.904
 755	3	4	0	35.064	32.506	-4.669
 756	3	4	0	33.833	33.85	-3.15
 757	3	4	0	33.874	32.744	-3.991
 758	3	9	0	32.534	30.978	-5.055
 759	3	9	0	31.959	28.085	-3.325
 760	3	4	0	30.971	27.166	-1.27
 761	3	4	0	30.08	27.374	-0.213
 762	3	4	0	31.526	25.888	-1.383
 763	3	4	0	29.787	26.367	0.701
 764	3	4	0	31.234	24.883	-0.475
 765	3	4	0	30.379	25.109	0.599
 766	3	9	0	31.138	23.701	2.459
 767	3	4	0	33.382	24.365	3.309
 768	3	4	0	33.28	23.908	4.621
 769	3	4	0	34.626	24.851	2.9
 770	3	4	0	34.376	23.906	5.464
 771	3	4	0	35.732	24.837	3.738
 772	3	4	0	35.63	24.354	5.038
 773	3	3	0	36.812	24.094	5.948
 774	3	4	0	38.047	24.976	5.962
 775	3	4	0	39.081	24.79	5.04
 776	3	4	0	38.31	25.764	7.082
 777	3	4	0	40.357	25.28	5.287
 778	3	4	0	39.588	26.235	7.334
 779	3	4	0	40.647	25.949	6.473
 780	3	9	0	42.684	25.304	7.563
 781	1	4	0	-15.099	56.715	34.005
 782	1	4	0	-15.64	57.943	33.632
 783	1	4	0	-15.406	56.242	35.28
 784	1	4	0	-16.5	58.632	34.48
 785	1	4	0	-16.285	56.915	36.112
 786	1	4	0	-16.868	58.12	35.728
 787	1	9	0	-17.843	58.847	37.881
 788	1	3	0	-20.302	59.249	37.905
 789	1	3	0	-21.376	58.83	38.926
 790	1	3	0	-23.538	59.698	38.102
 791	1	4	0	-22.649	57.54	37.316
 792	1	4	0	-21.93	56.342	37.491
 793	1	4	0	-23.32	57.703	36.092
 794	1	4	0	-21.885	55.374	36.491
 795	1	4	0	-23.254	56.72	35.112
 796	1	4	0	-22.543	55.537	35.277
 797	1	9	0	-21.88	53.421	34.149
 798	1	9	0	-20.914	53.053	30.857
 799	1	4	0	-22.069	54.929	29.826
 800	1	4	0	-23.369	54.791	30.314
 801	1	4	0	-21.655	56.199	29.434
 802	1	4	0	-24.22	55.878	30.411
 803	1	4	0	-22.495	57.296	29.569
 804	1	4	0	-23.794	57.154	30.055
 805	1	9	0	-24.907	58.789	31.458
 806	1	4	0	-25.982	60.711	32.561
 807	1	4	0	-26.189	60.27	33.865
 808	1	4	0	-25.983	62.087	32.35
 809	1	4	0	-26.403	61.171	34.898
 810	1	4	0	-26.219	62.988	33.374
 811	1	4	0	-26.449	62.55	34.676
 812	1	3	0	-26.765	63.479	35.838
 813	1	4	0	-26.588	64.946	35.521
 814	1	4	0	-25.422	65.623	35.863
 815	1	4	0	-27.585	65.671	34.87
 816	1	4	0	-25.272	66.975	35.596
 817	1	4	0	-27.433	67.025	34.606
 818	1	4	0	-26.292	67.72	35.006
 819	1	9	0	-27.176	70.002	34.88
 820	2	4	0	-21.316	44.256	37.087
 821	2	4	0	-20.838	43.962	35.81
 822	2	4	0	-20.911	43.393	38.111
 823	2	4	0	-20.104	42.82	35.541
 824	2	4	0	-20.144	42.263	37.851
 825	2	4	0	-19.762	41.927	36.552
 826	2	9	0	-18.185	40.068	36.954
 827	2	3	0	-18.58	37.994	35.604
 828	2	3	0	-18.272	38.08	34.099
 829	2	3	0	-18.461	35.811	32.996
 830	2	4	0	-20.265	37.5	32.625
 831	2	4	0	-20.773	38.807	32.717
 832	2	4	0	-20.988	36.607	31.806
 833	2	4	0	-21.912	39.18	32.016
 834	2	4	0	-22.161	36.996	31.161
 835	2	4	0	-22.639	38.295	31.238
 836	2	9	0	-24.04	39.688	29.728
 837	2	9	0	-25.871	42.226	30.08
 838	2	4	0	-25.347	44.53	30.7
 839	2	4	0	-24.256	45.37	30.5
 840	2	4	0	-26.084	44.71	31.872
 841	2	4	0	-23.883	46.296	31.459
 842	2	4	0	-25.709	45.644	32.832
 843	2	4	0	-24.576	46.441	32.66
 844	2	9	0	-24.258	47.428	34.941
 845	2	4	0	-22.041	48.428	35.259
 846	2	4	0	-21.355	49.603	35.557
 847	2	4	0	-21.316	47.43	34.617
 848	2	4	0	-20.033	49.793	35.167
 849	2	4	0	-20.003	47.616	34.23
 850	2	4	0	-19.341	48.822	34.439
 851	2	3	0	-17.929	48.931	33.868