LAMMPS (22 Jul 2025)
units           real
atom_style      full
boundary        p p p

# Force field settings
pair_style      lj/cut 10.0
bond_style      harmonic
angle_style     harmonic
dihedral_style  hybrid charmm fourier
improper_style  cvff

read_data       lammps.txt
Reading data file ...
  triclinic box = (0 0 0) to (39.51 42.345517 41.304692) with tilt (3.10223 2.990483 0.918876)
  2 by 4 by 4 MPI processor grid
WARNING: Pair style Atom-ID	Epsilon(kcal/mol)	Sigma(Å)	AtomName in data file differs from currently defined pair style lj/cut (../read_data.cpp:811)
WARNING: Atom style in data file Atom-ID	Molecule-ID	Atom-type	Charge	x	y	z	nx	ny	nz differs from currently defined atom style full (../read_data.cpp:727)
  reading atoms ...
  5646 atoms
  reading velocities ...
  5646 velocities
  scanning bonds ...
  3 = max bonds/atom
  scanning angles ...
  6 = max angles/atom
  scanning dihedrals ...
  10 = max dihedrals/atom
  scanning impropers ...
  1 = max impropers/atom
  triclinic box = (0 0 0) to (39.51 42.345517 41.304692) with tilt (3.10223 2.990483 0.918876)
  2 by 4 by 4 MPI processor grid
  reading bonds ...
  5943 bonds
  reading angles ...
  9720 angles
  reading dihedrals ...
  14088 dihedrals
  reading impropers ...
  300 impropers
Finding 1-2 1-3 1-4 neighbors ...
  special bond factors lj:    0        0        0       
  special bond factors coul:  0        0        0       
     4 = max # of 1-2 neighbors
     8 = max # of 1-3 neighbors
    16 = max # of 1-4 neighbors
    18 = max # of special neighbors
  special bonds CPU = 0.003 seconds
  read_data CPU = 0.117 seconds

minimize        1e-6 1e-6 2000 20000
Generated 36 of 36 mixed pair_coeff terms from geometric mixing rule
Neighbor list info ...
  update: every = 1 steps, delay = 0 steps, check = yes
  max neighbors/atom: 2000, page size: 100000
  master list distance cutoff = 12
  ghost atom cutoff = 12
  binsize = 6, bins = 8 8 7
  1 neighbor lists, perpetual/occasional/extra = 1 0 0
  (1) pair lj/cut, perpetual
      attributes: half, newton on
      pair build: half/bin/newton/tri
      stencil: half/bin/3d/tri
      bin: standard
Per MPI rank memory allocation (min/avg/max) = 13.86 | 13.89 | 14.09 Mbytes
   Step          Temp          E_pair         E_mol          TotEng         Press     
         0   0             -2854.9302      51623.88       48768.95      -57119.856    
      2000   0             -4022.6562      45479.533      41456.877     -1548.3371    
Loop time of 3.518 on 32 procs for 2000 steps with 5646 atoms

99.0% CPU use with 32 MPI tasks x no OpenMP threads

Minimization stats:
  Stopping criterion = max iterations
  Energy initial, next-to-last, final = 
      48768.9496596963   41456.9432573583   41456.8766204575
  Force two-norm initial, final = 2497.6801 10.701473
  Force max component initial, final = 92.541616 2.2985663
  Final line search alpha, max atom move = 0.0087305781 0.020067812
  Iterations, force evaluations = 2000 4000

MPI task timing breakdown:
Section |  min time  |  avg time  |  max time  |%varavg| %total
---------------------------------------------------------------
Pair    | 1.0035     | 1.9353     | 2.6011     |  30.6 | 55.01
Bond    | 0.063826   | 0.10607    | 0.12949    |   5.5 |  3.02
Neigh   | 0.24626    | 0.24643    | 0.24662    |   0.0 |  7.00
Comm    | 0.43283    | 1.1146     | 2.082      |  41.7 | 31.68
Output  | 0.00020654 | 0.00021167 | 0.00035671 |   0.0 |  0.01
Modify  | 0          | 0          | 0          |   0.0 |  0.00
Other   |            | 0.1154     |            |       |  3.28

Nlocal:        176.438 ave         230 max          92 min
Histogram: 3 0 2 3 2 1 6 6 6 3
Nghost:        4107.78 ave        4299 max        3866 min
Histogram: 3 1 2 1 7 3 3 5 2 5
Neighs:        52971.3 ave       73135 max       23412 min
Histogram: 3 1 1 5 1 2 3 7 5 4

Total # of neighbors = 1695081
Ave neighs/atom = 300.22689
Ave special neighs/atom = 10.219979
Neighbor list builds = 49
Dangerous builds = 0


# ============================================
# Low-temperature equilibration (solid state)
# ============================================

timestep 1.0

velocity all create 300.0 928374 dist gaussian mom yes rot yes

fix EQ all npt temp 300.0 300.0 100.0 iso 1.0 1.0 1000.0

thermo_style custom step temp press pe etotal enthalpy vol density
thermo 1000

run 500000     # 500 ps
Generated 36 of 36 mixed pair_coeff terms from geometric mixing rule
Per MPI rank memory allocation (min/avg/max) = 12.75 | 12.8 | 12.98 Mbytes
   Step          Temp          Press          PotEng         TotEng        Enthalpy        Volume        Density    
      2000   300            1790.8326      41456.877      46504.878      48309.744      69105.698      1.0696441    
      3000   307.22954     -24.149714      46705.639      51875.29       51851.692      67002.187      1.1032253    
      4000   305.60587      22.21218       46491.23       51633.56       51654.774      65486.912      1.1287523    
      5000   293.08321     -905.55099      46489.636      51421.252      50573.444      64196.05       1.1514494    
      6000   304.19764      961.64005      46456.93       51575.564      52456.87       62840.342      1.1762906    
      7000   299.903        533.37858      46326.337      51372.706      51855.796      62103.499      1.190247     
      8000   298.9208      -898.26923      46364.483      51394.325      50578.79       62252.996      1.1873887    
      9000   300.97148     -441.32393      46366.478      51430.827      51037.813      61062.469      1.2105391    
     10000   296.93433     -733.5302       46249.479      51245.896      50599.056      60464.849      1.2225038    
     11000   297.86302     -161.38094      46267.699      51279.743      51138.114      60175.873      1.2283744    
     12000   304.63417     -1688.0902      46290.122      51416.101      49927.415      60468.841      1.2224231    
     13000   301.43158      33.949951      46186.562      51258.652      51288.058      59389.903      1.2446308    
     14000   299.28415     -660.40797      46144.788      51180.744      50610.429      59214.324      1.2483213    
     15000   297.19914     -1613.8447      46138.557      51139.43       49752.716      58918.171      1.254596     
     16000   306.25423     -198.7732       46117.258      51270.498      51099.247      59074.314      1.2512799    
     17000   296.34998     -1086.919       46110.006      51096.59       50165.192      58757.367      1.2580296    
     18000   300.23063      633.16732      46119.899      51171.782      51712.938      58604.179      1.261318     
     19000   298.82753     -797.12933      46234.805      51263.078      50579.118      58833.617      1.2563991    
     20000   300.5837       99.20967       46131.191      51189.015      51273.347      58285.526      1.2682137    
     21000   300.92619     -762.61923      46066.653      51130.239      50479.932      58470.246      1.2642072    
     22000   298.42346      356.57071      45917.269      50938.743      51240.125      57955.655      1.2754321    
     23000   303.2939      -240.1864       46024.78       51128.207      50924.772      58076.56       1.2727769    
     24000   298.68576     -670.08962      46048.758      51074.645      50506.009      58186.986      1.2703615    
     25000   298.95605      609.65637      46020.695      51051.13       51562.3        57491.591      1.2857272    
     26000   302.55229     -1056.753       46079.32       51170.268      50282.914      57576.769      1.2838252    
     27000   299.98162     -980.9151       46058.216      51105.909      50283.684      57475.595      1.2860851    
     28000   298.22558      30.359163      45947.7        50965.845      50991.262      57405.973      1.2876448    
     29000   300.5607       428.70681      46004.937      51062.374      51422.214      57553.677      1.2843403    
     30000   298.27211      1457.4244      46030.102      51049.029      52273.122      57590.727      1.283514     
     31000   296.70509      284.683        46083.467      51076.027      51316.971      58033.436      1.2737227    
     32000   300.0838      -903.6181       46008.075      51057.487      50300.483      57443.027      1.2868142    
     33000   300.54259     -1172.5705      46048.351      51105.483      50118.22       57732.184      1.2803691    
     34000   299.51442      99.821908      45955.675      50995.506      51079.335      57582.652      1.283694     
     35000   296.33425      105.67206      45956.269      50942.588      51030.519      57056.704      1.2955271    
     36000   300.13152     -234.9647       46073.041      51123.256      50925.725      57644.2        1.2823234    
     37000   297.60869     -267.37947      45850.076      50857.84       50633.312      57579.266      1.2837695    
     38000   304.22481     -308.81786      45946.078      51065.169      50808.684      56948.711      1.2979838    
     39000   306.74189     -1614.9205      45892.029      51053.474      49711.133      56994.907      1.2969317    
     40000   300.22762     -163.61896      45929.434      50981.265      50844.793      57191.999      1.2924623    
     41000   297.93614      1556.7452      45989.28       51002.553      52300.57       57172.45       1.2929043    
     42000   300.70266     -2006.9824      46048.874      51108.7        49446.614      56785.053      1.3017247    
     43000   297.77574      361.88524      45986.08       50996.655      51295.375      56600.158      1.305977     
     44000   297.55096      170.26823      45974.623      50981.415      51123.67       57286.923      1.2903207    
     45000   299.00791     -824.25578      45992.12       51023.428      50333.238      57415.701      1.2874267    
     46000   297.55132     -1296.6648      45888.098      50894.897      49816.843      57008.155      1.2966304    
     47000   297.57292      213.10552      46012.473      51019.635      51197.52       57235.927      1.2914704    
     48000   303.42286     -189.33749      45981.48       51087.077      50929.542      57051.064      1.2956551    
     49000   298.78019      411.49592      45902.531      50930.008      51271.612      56922.218      1.2985879    
     50000   295.56575      2037.9271      45947.176      50920.564      52622.46       57262.242      1.2908769    
     51000   299.17006      160.70349      45920.753      50954.789      51087.992      56834.403      1.3005944    
     52000   299.38795      1018.9481      45968.792      51006.495      51854.064      57035.783      1.2960023    
     53000   298.68901      571.48747      45855.904      50881.847      51354.89       56756.849      1.3023715    
     54000   299.93722      110.67875      45937.824      50984.77       51076.994      57135.306      1.2937448    
     55000   299.4295       607.64643      46002.592      51040.995      51545.077      56881.952      1.2995072    
     56000   304.01128      937.98901      45945.21       51060.708      51842.831      57174.343      1.2928615    
     57000   299.68164     -1539.8513      45959.543      51002.188      49713.325      57392.099      1.2879561    
     58000   299.29112      256.8851       45867.737      50903.81       51117.709      57094.299      1.294674     
     59000   299.67464      239.95111      45990.656      51033.184      51232.283      56894.567      1.299219     
     60000   299.21523      690.10627      45950.63       50985.426      51555.207      56612.951      1.3056819    
     61000   304.04995      413.7469       45873.598      50989.747      51330.816      56523.819      1.3077408    
     62000   300.04885      155.84113      45847.182      50896.006      51024.811      56672.861      1.3043016    
     63000   307.30833      157.19889      45959.195      51130.172      51260.386      56797.94       1.3014293    
     64000   297.74734     -113.47901      45886.01       50896.107      50802.441      56596.665      1.3060576    
     65000   304.86421      1470.3169      45931.616      51061.466      52276.237      56651.022      1.3048044    
     66000   295.07998      260.84502      45958.456      50923.67       51141.233      57190.935      1.2924864    
     67000   304.99774      122.93848      45910.997      51043.094      51145.398      57059.656      1.29546      
     68000   299.07575      60.20849       45876.987      50909.436      50959.452      56960.1        1.2977243    
     69000   300.83883      597.91756      45917.377      50979.494      51472.009      56481.025      1.3087317    
     70000   297.00272     -593.67723      46002.184      50999.752      50508.24       56768.484      1.3021046    
     71000   301.62273      680.68696      45896.229      50971.536      51534.744      56734.243      1.3028905    
     72000   300.5016      -281.8468       45971.329      51027.771      50793.911      56894.143      1.2992287    
     73000   302.79726     -1415.0927      45897.487      50992.558      49811.37       57234.547      1.2915015    
     74000   296.02455     -324.87691      45928.999      50910.107      50641.895      56608.736      1.3057791    
     75000   301.16963     -570.01442      46048.114      51115.797      50642.32       56955.637      1.297826     
     76000   302.92606      1411.8487      45873.979      50971.216      52144.058      56960.697      1.2977107    
     77000   296.4224       1265.6787      45941.691      50929.493      51976.787      56737.326      1.3028197    
     78000   302.35876      144.86556      46020.812      51108.504      51228.389      56744.705      1.3026503    
     79000   299.9236      -1336.8186      45982.982      51029.698      49917.487      57047.808      1.2957291    
     80000   295.69684      498.03071      45969.36       50944.954      51359.279      57043.789      1.2958204    
     81000   303.10009      1533.549       46001.02       51101.186      52370.033      56733.016      1.3029187    
     82000   298.11379     -99.548867      45915.992      50932.255      50849.857      56755.04       1.302413     
     83000   301.50696     -777.38953      46012.839      51086.197      50440.142      56984.334      1.2971724    
     84000   298.00683      1379.0319      45984.712      50999.176      52141.393      56793.503      1.301531     
     85000   298.61178      22.285665      45911.032      50935.675      50954.078      56622.15       1.3054698    
     86000   306.88652      771.35798      45933.391      51097.27       51733.244      56533.691      1.3075125    
     87000   297.46018     -204.11012      45869.463      50874.729      50705.964      56694.516      1.3038034    
     88000   302.63903      719.74733      45990.89       51083.298      51678.287      56683.102      1.304066     
     89000   299.34101      785.23094      45877.55       50914.464      51560.465      56410.52       1.3103674    
     90000   301.77624      311.81267      45867.424      50945.314      51204.303      56952.171      1.297905     
     91000   298.80231      872.8692       46039.284      51067.133      51787.672      56602.067      1.305933     
     92000   303.7124      -493.28602      45913.693      51024.162      50615.981      56738.514      1.3027924    
     93000   291.76112     -231.49302      45922.181      50831.55       50640.633      56549.809      1.3071398    
     94000   301.98117      774.63174      45911.551      50992.89       51630.928      56477.534      1.3088125    
     95000   295.40804     -387.30713      45928.126      50898.86       50579.338      56567.82       1.3067236    
     96000   302.35717     -138.27762      45961.582      51049.247      50935.401      56453.351      1.3093732    
     97000   298.11156      1776.8093      45866.9        50883.126      52350.697      56634.691      1.3051807    
     98000   295.92677      511.21328      45850.149      50829.612      51250.158      56407.273      1.3104428    
     99000   298.82138     -137.46325      45892.519      50920.689      50807.104      56657.477      1.3046558    
    100000   301.99765      73.066042      46027.281      51108.897      51169.531      56902.3        1.2990425    
    101000   298.60407      801.21763      45900.267      50924.779      51589.56       56892.082      1.2992758    
    102000   300.09614     -1712.9511      45983.449      51033.068      49608.93       57007.411      1.2966473    
    103000   303.32591     -377.5641       45934.268      51038.234      50726.515      56610.371      1.3057414    
    104000   296.47694      463.89191      45926.625      50915.346      51297.087      56425.537      1.3100186    
    105000   298.12739      984.68591      45848.978      50865.47       51670.286      56043.203      1.3189558    
    106000   296.64575     -150.41375      45858.405      50849.966      50725.981      56520.526      1.307817     
    107000   302.03873     -108.61812      45849.857      50932.164      50843.042      56261.073      1.3138481    
    108000   299.32775      100.18368      45822.045      50858.735      50941.002      56305.582      1.3128095    
    109000   298.43799     -428.95615      45927.89       50949.609      50595.842      56549.385      1.3071496    
    110000   295.09908     -712.67007      45924.615      50890.151      50301.514      56634.785      1.3051785    
    111000   303.50581      518.03564      45869.286      50976.279      51404.193      56639.752      1.3050641    
    112000   300.12723      270.87662      45960.572      51010.715      51234.089      56543.751      1.3072798    
    113000   302.49279     -1203.3445      45930.053      51020          50031.473      56327.809      1.3122915    
    114000   299.46638     -1281.2823      45821.709      50860.732      49804.08       56547.22       1.3071996    
    115000   300.72991     -522.01938      45862.933      50923.216      50497.502      55918.599      1.3218948    
    116000   299.44379      1916.4431      45813.504      50852.146      52419.748      56087.23       1.3179204    
    117000   304.94395      472.36309      45897.478      51028.67       51415.857      56204.2        1.3151776    
    118000   299.43445      728.35741      45848.589      50887.074      51485.548      56340.981      1.3119847    
    119000   298.53322     -634.17944      45907.171      50930.491      50410.486      56223.769      1.3147198    
    120000   303.099       -1961.1685      46001.237      51101.384      49491.16       56298.348      1.3129782    
    121000   297.60811     -320.56591      45826.935      50834.69       50572.539      56073.439      1.3182445    
    122000   300.32253     -910.76026      45911.885      50965.314      50220.836      56049.514      1.3188072    
    123000   299.67024     -46.143337      45810.849      50853.302      50815.467      56223.595      1.3147239    
    124000   303.04266      29.121214      45880.405      50979.605      51003.528      56330.316      1.3122331    
    125000   297.39836      1036.5617      45862.806      50867.031      51714.544      56062.863      1.3184932    
    126000   301.26059      1671.6124      45836.38       50905.593      52274.783      56163.254      1.3161364    
    127000   296.94618      974.58203      45916.448      50913.064      51708.015      55930.2        1.3216206    
    128000   296.48642      1506.2856      45790.981      50779.861      52007.965      55905.151      1.3222128    
    129000   300.98213      1304.6446      45840.132      50904.66       51966.467      55805.569      1.3245722    
    130000   301.46698      368.15967      45919.349      50992.035      51295.06       56437.373      1.3097439    
    131000   295.02458      261.87981      45958.254      50922.536      51137.42       56263.429      1.3137931    
    132000   295.6997       987.78184      45888.173      50863.815      51674.317      56262.267      1.3138202    
    133000   298.57926     -1914.6357      45940.361      50964.457      49384.372      56587.212      1.3062758    
    134000   298.42798      1152.4477      45926.842      50948.392      51900.825      56667.967      1.3044143    
    135000   298.40962      420.03149      45758.925      50780.166      51124.438      56200.918      1.3152544    
    136000   303.4452       468.57031      45749.946      50855.92       51238.52       55987.985      1.3202566    
    137000   295.85661     -1619.379       45979.87       50958.153      49633.016      56109.478      1.3173978    
    138000   301.13648      1988.3479      45850.962      50918.086      52558.123      56556.84       1.3069773    
    139000   294.66675     -478.58048      45891.711      50849.972      50455.246      56554.229      1.3070376    
    140000   302.21105      312.96139      45922.493      51007.699      51264.875      56345.999      1.3118679    
    141000   307.28002     -71.593993      45843.373      51013.873      50955.04       56346.767      1.31185      
    142000   301.24905      56.057128      45879.135      50948.154      50994.403      56570.662      1.3066579    
    143000   293.81447     -1216.653       45812.624      50756.544      49751.928      56618.393      1.3055564    
    144000   303.87365     -1140.696       45880.124      50993.307      50054.473      56434.243      1.3098165    
    145000   297.77965      724.95077      45833.776      50844.417      51440.475      56377.287      1.3111398    
    146000   300.65717      1586.1999      45904.923      50963.983      52264.313      56210.813      1.3150229    
    147000   299.03641     -447.35991      45856.789      50888.577      50520.172      56466.693      1.3090638    
    148000   299.98196      891.03921      45844.457      50892.155      51627.932      56620.474      1.3055084    
    149000   302.33549      496.2239       45929.025      51016.326      51426.036      56613.977      1.3056582    
    150000   308.6997      -455.97981      45887.188      51081.577      50705.448      56560.725      1.3068875    
    151000   300.00179     -253.09241      45772.671      50820.703      50612.39       56436.829      1.3097565    
    152000   302.5639      -901.8949       45837.567      50928.71       50183.851      56629.485      1.3053007    
    153000   303.04487      235.36873      45876.995      50976.232      51170.632      56633.221      1.3052146    
    154000   295.47468     -917.22376      45898.674      50870.53       50112.338      56679.756      1.3041429    
    155000   293.14984      1036.9725      45819.344      50752.081      51606.54       56499.983      1.3082925    
    156000   304.52626      809.94091      45920.673      51044.837      51709.934      56306.158      1.3127961    
    157000   300.23364      657.6042       45845.973      50897.907      51439.816      56504.87       1.3081794    
    158000   301.32952      668.55746      45920.746      50991.12       51543.844      56688.425      1.3039435    
    159000   304.28199      490.86563      45905.129      51025.182      51429.018      56411.29       1.3103495    
    160000   302.64346     -757.45203      45884.594      50977.076      50352.354      56552.992      1.3070662    
    161000   296.23565     -562.34022      45916.331      50900.992      50435.376      56774.463      1.3019675    
    162000   302.48968     -580.21049      45923.475      51013.37       50534.126      56636.301      1.3051436    
    163000   301.54325     -764.98778      45924.626      50998.596      50370.692      56281.142      1.3133796    
    164000   296.92219      1075.3671      45889.597      50885.81       51765.756      56107.842      1.3174362    
    165000   301.11105      655.23314      45971.522      51038.219      51577.265      56409.71       1.3103862    
    166000   299.32747      1627.1508      45849.641      50886.327      52219.225      56168.556      1.3160122    
    167000   302.72655      654.90789      45908.873      51002.753      51539.151      56160.456      1.316202     
    168000   295.10357     -414.67697      45694.65       50660.262      50321.551      56007.079      1.3198065    
    169000   302.56306      627.03253      45872.766      50963.896      51478.514      56275.445      1.3135126    
    170000   298.87201     -336.24402      45842.388      50871.41       50597.705      55815.173      1.3243443    
    171000   301.66208      1042.1583      45835.88       50911.849      51764.863      56123.669      1.3170647    
    172000   298.74339     -357.11275      45902.756      50929.613      50636.812      56220.117      1.3148052    
    173000   299.38706      1136.4573      45872.204      50909.892      51838.896      56051.702      1.3187558    
    174000   301.50908      559.96606      45850.508      50923.903      51378.982      55724.907      1.3264895    
    175000   299.08907     -1302.1726      45836.73       50869.404      49802.598      56174.729      1.3158676    
    176000   303.3813      -973.64981      45910.599      51015.497      50216.198      56289.959      1.3131739    
    177000   300.41022     -347.4154       45840.083      50894.988      50610.545      56139.785      1.3166866    
    178000   297.80043      93.050865      45781.154      50792.144      50868.463      56238.78       1.3143689    
    179000   300.62515     -1294.5674      45910.771      50969.292      49901.498      56557.091      1.3069715    
    180000   302.30454      851.47783      45803.542      50890.321      51585.217      55959.038      1.3209395    
    181000   294.12705     -883.40925      45999.042      50948.222      50219.108      56592.299      1.3061584    
    182000   302.31736      1229.0375      45899.031      50986.026      51995.954      56344.181      1.3119102    
    183000   302.61457      454.91599      45798.815      50890.811      51263.49       56172.946      1.3159093    
    184000   302.30101     -9.877053       45877.856      50964.576      50956.457      56362.002      1.3114954    
    185000   299.6271       1785.4759      45903.125      50944.852      52407.524      56171.661      1.3159395    
    186000   295.9549       830.38504      45867.519      50847.455      51525.851      56018.036      1.3195483    
    187000   301.12375      415.83118      45856.442      50923.353      51263.09       56020.842      1.3194822    
    188000   297.40745      35.258947      45770.481      50774.859      50803.722      56130.473      1.3169051    
    189000   296.89716      49.455676      45854.047      50849.838      50890.336      56148.186      1.3164896    
    190000   296.44224      780.13402      45937.998      50926.134      51561.684      55860.448      1.3232709    
    191000   301.14384      1081.7245      45834.277      50901.525      51785.562      56037.337      1.3190938    
    192000   296.52249      1272.8788      45862.244      50851.731      51892.756      56078.704      1.3181208    
    193000   300.11108     -2311.139       45933.69       50983.561      49075.426      56611.822      1.3057079    
    194000   295.57154     -692.28034      45882.796      50856.281      50289.631      56125.121      1.3170307    
    195000   299.07453     -264.04554      45824.71       50857.14       50641.554      55984.217      1.3203454    
    196000   299.4783       675.97323      45976.537      51015.761      51570.198      56240.272      1.3143341    
    197000   300.38027     -1093.5351      45755.637      50810.038      49918.843      55880.997      1.3227843    
    198000   294.166        417.93169      45920.642      50870.477      51212.267      56076.058      1.318183     
    199000   303.16788      820.13011      45909.889      51011.196      51683.41       56201.642      1.3152375    
    200000   300.15839      3340.3083      45766          50816.667      53538.452      55871.632      1.323006     
    201000   301.52077      30.4704        45959.704      51033.295      51058.224      56098.651      1.3176521    
    202000   294.46458      698.0493       45914.532      50869.391      51439.384      55989.679      1.3202166    
    203000   293.62167     -812.36199      45802.569      50743.244      50084.075      55637.974      1.3285621    
    204000   295.00821     -36.21207       45901.203      50865.21       50835.606      56055.98       1.3186551    
    205000   306.10506      90.318025      45943.248      51093.978      51168.034      56222.837      1.3147416    
    206000   301.51416     -680.34567      45954.226      51027.706      50466.817      56529.059      1.3076196    
    207000   300.25594      78.858683      45914.62       50966.929      51031.441      56094.326      1.3177537    
    208000   302.29717      242.58109      45814.484      50901.139      51098.788      55867.797      1.3230968    
    209000   298.63265     -1339.8836      45811.602      50836.596      49738.46       56197.02       1.3153456    
    210000   300.72227      1066.1247      45904.816      50964.971      51835.602      55995.134      1.320088     
    211000   303.76625      1163.2045      45904.912      51016.287      51965.195      55936.124      1.3214806    
    212000   297.83206      755.23905      45822.633      50834.156      51454.768      56345.578      1.3118777    
    213000   296.29744      836.40441      45870.468      50856.168      51540.204      56077.218      1.3181557    
    214000   304.41661     -428.63753      45906.767      51029.085      50677.31       56272.96       1.3135706    
    215000   296.62115     -1542.897       45926.991      50918.138      49648.055      56444.195      1.3095856    
    216000   302.84419      209.19589      45829.478      50925.339      51096.394      56066.942      1.3183973    
    217000   300.85356     -950.7184       45798.91       50861.274      50079.931      56352.644      1.3117132    
    218000   299.00465      1273.5515      45877.608      50908.861      51954.707      56308.663      1.3127377    
    219000   305.38676      233.1282       45883.056      51021.699      51212.126      56008.841      1.3197649    
    220000   299.52666     -642.60642      45889.147      50929.184      50402.757      56171.606      1.3159407    
    221000   299.86805      76.324706      45905.812      50951.593      51014.17       56217.168      1.3148742    
    222000   303.8697      -128.01754      45930.529      51043.645      50939.387      55842.793      1.3236893    
    223000   300.1088      -287.09108      45781.573      50831.406      50596.136      56191.379      1.3154777    
    224000   302.05736     -1196.0403      45849.173      50931.793      49946.942      56461.026      1.3091952    
    225000   305.37919     -74.391799      45879.761      51018.276      50957.3        56203.088      1.3152036    
    226000   301.19702     -276.25398      45793.697      50861.841      50636.279      55986.076      1.3203016    
    227000   300.14231     -1619.2004      45753.95       50804.346      49475.621      56267.619      1.3136953    
    228000   300.07592      436.97021      45895.576      50944.855      51302.434      56110.519      1.3173734    
    229000   295.83586     -635.72165      45788.271      50766.204      50248.444      55845.146      1.3236335    
    230000   298.66322     -1067.0165      45860.466      50885.974      50013.426      56071.514      1.3182898    
    231000   305.32073     -367.41564      45825.715      50963.247      50662.897      56052.356      1.3187404    
    232000   293.82624     -194.10047      45876.576      50820.694      50660.515      56585.505      1.3063152    
    233000   296.76529      126.73924      45713.805      50707.377      50810.971      56046.387      1.3188808    
    234000   299.43384      365.58645      45815.918      50854.394      51153.198      56043.022      1.31896      
    235000   307.19246      854.66019      45890.621      51059.648      51760.334      56215.192      1.3149204    
    236000   299.73182      289.61155      45857.432      50900.922      51138.527      56255.411      1.3139804    
    237000   297.95354     -499.6904       45789.514      50803.081      50394.145      56114.966      1.317269     
    238000   293.59243     -515.56518      45837.964      50778.148      50356.826      56034.455      1.3191617    
    239000   299.14735     -915.0341       45860.591      50894.245      50143.404      56264.566      1.3137666    
    240000   295.45584     -1076.5409      45860.844      50832.383      49945.79       56469.98       1.3089876    
    241000   305.49024      1184.7036      45913.833      51054.218      52025.561      56219.528      1.314819     
    242000   300.49919      873.8012       45814.352      50870.754      51589.178      56375.796      1.3111745    
    243000   303.9429       363.99426      45804.253      50918.601      51214.668      55772.504      1.3253575    
    244000   298.42683     -375.59391      45845.291      50866.822      50558.792      56234.021      1.3144802    
    245000   300.0606       147.85866      45795.499      50844.521      50964.818      55787.232      1.3250076    
    246000   299.71225      1144.6591      45761.666      50804.826      51733.36       55621.891      1.3289463    
    247000   302.62548      635.62296      45884.723      50976.903      51498.615      56280.136      1.3134031    
    248000   292.6661      -382.09677      45878.357      50802.953      50490.092      56143.893      1.3165903    
    249000   301.30596     -905.99163      45893.387      50963.364      50218.841      56347.944      1.3118226    
    250000   301.98796     -1551.9542      45972.401      51053.854      49779.011      56325.085      1.312355     
    251000   303.22175     -1381.9442      45824.766      50926.98       49793.506      56239.979      1.3143409    
    252000   298.74108     -969.12217      45755.818      50782.637      49989.492      56117.449      1.3172107    
    253000   299.03503     -117.87713      45961.525      50993.29       50896.47       56319.121      1.3124939    
    254000   295.19483     -29.494164      45810.239      50777.386      50753.233      56149.347      1.3164624    
    255000   299.53034      237.59418      45914.368      50954.467      51149.911      56404.001      1.3105188    
    256000   301.1482       722.3139       45840.598      50907.92       51498.415      56054.956      1.3186792    
    257000   298.8312      -1825.6163      45988.085      51016.42       49507.398      56677.419      1.3041967    
    258000   299.83601     -15.76214       45853.879      50899.122      50886.176      56315.298      1.312583     
    259000   298.08785      964.9793       45906.53       50922.356      51712.299      56130.864      1.3168959    
    260000   304.9299      -896.15166      45982.658      51113.614      50379.346      56182          1.3156973    
    261000   297.83647      770.94979      45921.08       50932.677      51563.883      56139.588      1.3166913    
    262000   288.47104     -89.737754      45904.137      50758.145      50684.642      56163.037      1.3161415    
    263000   298.34399     -171.53975      45891.758      50911.895      50770.595      56480.873      1.3087352    
    264000   304.38954      854.26177      45858.877      50980.741      51680.39       56158.275      1.3162531    
    265000   298.62232      1671.1429      45832.726      50857.547      52221.062      55946.182      1.3212431    
    266000   305.27369     -225.81889      45961.967      51098.708      50912.892      56421.836      1.3101046    
    267000   305.748        612.39347      45677.798      50822.519      51322.909      56027.625      1.3193225    
    268000   303.96608     -1051.9969      45871.268      50986.006      50129.185      55846.944      1.3235909    
    269000   304.96765      343.39552      45846.112      50977.703      51257.69       55907.12       1.3221662    
    270000   296.9275      -418.01764      45881.558      50877.86       50536.946      55920.897      1.3218405    
    271000   298.18318     -542.35681      45860.504      50877.935      50432.061      56370.487      1.311298     
    272000   300.64414      1781.9015      45966.357      51025.197      52490.42       56382.469      1.3110193    
    273000   300.25728      374.79205      45867.818      50920.15       51228.436      56401.184      1.3105843    
    274000   302.84777      544.2808       45807.777      50903.698      51349.644      56180.262      1.315738     
    275000   299.81223      187.6705       45941.084      50985.926      51140.398      56438.78       1.3097113    
    276000   302.43143      343.01427      45908.665      50997.58       51278.581      56171.981      1.315932     
    277000   303.8099       2158.4898      45827.484      50939.594      52700.764      55946.84       1.3212275    
    278000   294.08345     -1334.3526      45819.185      50767.631      49678.502      55967.115      1.3207489    
    279000   303.15115     -1311.0682      45693.827      50794.853      49734.051      55479.534      1.3323563    
    280000   301.73784     -87.068292      45860.187      50937.431      50866.492      55866.417      1.3231295    
    281000   298.10204      349.94133      45837.436      50853.501      51138.023      55750.007      1.3258923    
    282000   302.0839      -11.862264      45945.425      51028.492      51018.761      56251.602      1.3140693    
    283000   298.48405     -800.80774      45768          50790.494      50133.118      56287.145      1.3132395    
    284000   294.15918     -105.37518      45912.769      50862.49       50776.142      56187.367      1.3155716    
    285000   303.33025      375.36774      45819.47       50923.509      51229.691      55930.374      1.3216165    
    286000   302.13031     -517.25668      45970.85       51054.698      50629.241      56399.25       1.3106292    
    287000   299.85697      305.62551      45881.992      50927.587      51178.386      56267.933      1.3136879    
    288000   298.65131      2595.3295      45841.39       50866.698      52984.383      55949.089      1.3211744    
    289000   302.34846      1113.3232      45792.897      50880.415      51790.441      56047.529      1.318854     
    290000   298.33699     -2185.907       45862.273      50882.292      49084.484      56394.343      1.3107433    
    291000   302.71924      728.64929      45809.885      50903.643      51499.162      56040.423      1.3190212    
    292000   303.86218      743.25194      45876.928      50989.917      51597.659      56066.951      1.3183971    
    293000   297.4525       401.08277      45853.719      50858.854      51185.242      55798.593      1.3247378    
    294000   306.17015      1577.2202      45919.127      51070.952      52356.853      55903.567      1.3222502    
    295000   304.03624     -87.169459      45851.335      50967.253      50896.409      55727.053      1.3264384    
    296000   300.26891      857.07691      45771.616      50824.143      51523.092      55917.812      1.3219134    
    297000   299.74821      66.501314      45849.049      50892.814      50947.084      55956.726      1.3209941    
    298000   303.63465      556.62179      45922.31       51031.471      51483.949      55739.281      1.3261474    
    299000   301.03033      282.16189      45863.543      50928.882      51160.152      56201.231      1.3152471    
    300000   295.89178      893.2131       45720.626      50699.5        51427.308      55870.911      1.3230231    
    301000   304.75692     -295.67716      45826.347      50954.392      50712.539      56086.473      1.3179382    
    302000   303.8809       173.89824      45961.332      51074.637      51217.161      56197.725      1.3153291    
    303000   300.63997     -13.544563      45901.736      50960.506      50949.47       55871.708      1.3230042    
    304000   298.36539     -110.5387       45797.417      50817.914      50728.331      55568.921      1.3302131    
    305000   298.84297      1006.7615      45802.43       50830.962      51649.811      55770.058      1.3254156    
    306000   304.09277     -24.153459      45802.65       50919.52       50899.788      56015.265      1.3196136    
    307000   298.35176      705.24673      45874.146      50894.414      51470.576      56017.976      1.3195497    
    308000   304.09617      144.97197      45780.437      50897.364      51016.086      56152.66       1.3163847    
    309000   295.54369      1338.1139      45826.321      50799.337      51890.377      55907.709      1.3221523    
    310000   300.40848      1015.5798      45897.174      50952.049      51780.252      55917.347      1.3219244    
    311000   298.90826     -726.64205      45843.167      50872.798      50274.961      56413.934      1.3102881    
    312000   297.19546     -260.53529      45736.959      50737.77       50524.529      56121.297      1.3171204    
    313000   299.00616     -245.61902      45842.657      50873.936      50671.907      56399.656      1.3106198    
    314000   302.81362     -572.05287      45934.177      51029.522      50559.737      56310.32       1.3126991    
    315000   294.46638     -2305.8154      45884.933      50839.823      48952.062      56136.66       1.3167599    
    316000   299.18919      50.276037      45964.928      50999.287      51040.693      56471.055      1.3089627    
    317000   297.23887     -2086.5668      45850.907      50852.449      49136.592      56386.203      1.3109325    
    318000   306.94001      971.33431      45764.115      50928.894      51723.031      56059.658      1.3185686    
    319000   304.99326     -649.80942      45903.745      51035.766      50502.833      56235.552      1.3144444    
    320000   297.14387     -1114.5358      45856.208      50856.15       49939.111      56418.023      1.3101931    
    321000   303.43978      672.7339       45795.102      50900.984      51453.775      56343.245      1.311932     
    322000   296.38036     -971.86998      45866.382      50853.477      50055.096      56328.286      1.3122804    
    323000   292.80873      268.53025      45816.533      50743.53       50963.785      56241.392      1.3143079    
    324000   301.33728      854.13057      45866.684      50937.188      51635.176      56033.492      1.3191843    
    325000   296.4963       1035.0488      45907.935      50896.981      51742.459      56010.038      1.3197367    
    326000   302.39699      564.54502      45925.374      51013.709      51476.567      56217.79       1.3148597    
    327000   296.56494      269.90511      45915.811      50906.012      51128.334      56480.1        1.3087531    
    328000   303.88074     -52.346115      45884.878      50998.179      50955.403      56033.545      1.3191831    
    329000   302.1739       897.43912      45738.349      50822.931      51554.011      55857.896      1.3233313    
    330000   301.71959     -417.06306      45850.819      50927.755      50584.951      56359.701      1.3115489    
    331000   289.53996     -73.757309      45809.249      50681.244      50620.568      56406.734      1.3104553    
    332000   298.09248      398.94721      45949.55       50965.455      51295.097      56656.652      1.3046748    
    333000   296.30555     -37.914751      46051.04       51036.877      51005.566      56625.706      1.3053878    
    334000   300.96722      856.06548      45976.55       51040.827      51745.563      56447.392      1.3095114    
    335000   304.81472      921.15684      45866.837      50995.854      51756.011      56584.007      1.3063498    
    336000   300.45357      1850.9314      45890.092      50945.726      52462.014      56171.447      1.3159445    
    337000   302.66202     -678.56652      45924.27       51017.064      50459.021      56389.637      1.3108527    
    338000   306.83565     -488.86289      45859.513      51022.536      50620.272      56422.009      1.3101006    
    339000   298.73865     -920.46455      45868.215      50894.992      50138.448      56357.45       1.3116013    
    340000   295.09559     -121.68639      45918.571      50884.047      50784.294      56209.629      1.3150506    
    341000   304.01858     -1470.9076      45895.571      51011.192      49803.131      56315.434      1.3125799    
    342000   296.34933     -417.76528      45888.413      50874.986      50529.653      56680.095      1.3041352    
    343000   298.48259      720.1421       45899.496      50921.965      51514.252      56394.679      1.3107354    
    344000   298.63966     -685.90169      45900.111      50925.223      50364.23       56081.499      1.3180551    
    345000   303.17226      1095.0769      45964.426      51065.806      51965.456      56331.711      1.3122006    
    346000   305.80774      2044.4754      45780.36       50926.086      52579.709      55459.829      1.3328296    
    347000   296.11863     -926.07173      45784.763      50767.455      50016.184      55625.733      1.3288545    
    348000   303.31996      1337.5701      45839.524      50943.389      52034.707      55944.668      1.3212788    
    349000   298.18487      945.91582      45868.703      50886.162      51658.923      56016.662      1.3195807    
    350000   299.46223      1244.3201      45870.158      50909.111      51926.689      56073.738      1.3182375    
    351000   297.77927     -6.0807703      45818.499      50829.134      50824.154      56145.682      1.3165484    
    352000   300.1662       1053.2065      45789.051      50839.849      51699.866      55990.932      1.3201871    
    353000   300.29684     -4.7570576      45843.315      50896.312      50892.424      56033.382      1.3191869    
    354000   295.36357      1242.1423      45819.544      50789.53       51795.637      55538.838      1.3309336    
    355000   302.1165      -1480.2479      45822.598      50906.214      49703.279      55722.661      1.326543     
    356000   300.06524      10.224723      45854.331      50903.43       50911.765      55893.958      1.3224776    
    357000   299.86381      439.95522      45841.545      50887.255      51247.758      56185.603      1.3156129    
    358000   301.98929     -736.24697      45864.927      50946.402      50341.884      56300.164      1.3129359    
    359000   292.71395     -253.54673      45903.395      50828.797      50620.781      56255.169      1.313986     
    360000   300.28203      1820.4349      45824.19       50876.937      52356.499      55729.119      1.3263893    
    361000   300.33279      716.33414      45828.705      50882.306      51464.579      55735.899      1.3262279    
    362000   300.0909      -1164.2769      45844.218      50893.75       49942.573      56018.193      1.3195446    
    363000   303.1653       1217.3854      45873.851      50975.114      51972.046      56151.533      1.3164112    
    364000   295.59838     -1952.2942      45847.954      50821.891      49220.854      56231.596      1.3145369    
    365000   301.02001      556.55486      45863.357      50928.522      51383.339      56034.138      1.3191691    
    366000   302.2421       979.36128      45876.726      50962.455      51763.114      56056.814      1.3186355    
    367000   296.03689     -527.72119      45898.888      50880.204      50446.449      56359.116      1.3115625    
    368000   299.59134      2258.849       45864.761      50905.887      52744.798      55821.018      1.3242056    
    369000   302.61754     -363.04417      45802.462      50894.509      50598.11       55981.021      1.3204208    
    370000   304.07941      1314.3051      45851.014      50967.659      52036.796      55777.819      1.3252312    
    371000   298.65516      111.18913      45793.462      50818.835      50909.462      55888.267      1.3226122    
    372000   300.96553     -1008.2089      45697.967      50762.216      49943.803      55660.315      1.3280289    
    373000   297.81493      255.36651      45849.095      50860.329      51068.112      55791.783      1.3248995    
    374000   298.15882     -555.32808      45821.9        50838.921      50388.153      55658.03       1.3280834    
    375000   298.9561      -1085.319       45826.921      50857.357      49973.974      55810.503      1.3244551    
    376000   299.52949     -162.14997      45776.777      50816.862      50684.75       55866.03       1.3231387    
    377000   295.35961     -711.52834      45864.508      50834.427      50253.058      56025.227      1.3193789    
    378000   297.75087     -440.80622      45848.298      50858.455      50499.654      55812.342      1.3244114    
    379000   304.10031      54.354602      45894.672      51011.669      51056.017      55946.106      1.3212449    
    380000   297.82519     -2049.7234      45909.945      50921.352      49242.046      56177.008      1.3158142    
    381000   301.14744     -138.96015      45808.398      50875.708      50762.108      56054.606      1.3186874    
    382000   301.68341     -99.081375      45981.428      51057.756      50977.05       55852.12       1.3234682    
    383000   293.62238     -947.67343      45843.509      50784.197      50008.446      56129.064      1.3169381    
    384000   302.33845     -1619.8468      45879.185      50966.535      49645.74       55909.505      1.3221098    
    385000   298.34525     -482.34479      45869.658      50889.816      50498.014      55697.115      1.3271514    
    386000   308.07308      116.89941      45852.918      51036.763      51132.418      56107.048      1.3174549    
    387000   302.53293     -419.18711      45748.945      50839.567      50497.022      56031.671      1.3192272    
    388000   302.28993     -370.23802      45892.792      50979.326      50677.68       55865.087      1.323161     
    389000   300.44726      482.20819      45800.907      50856.435      51251.269      56144.105      1.3165853    
    390000   302.17455     -1146.4859      45768.199      50852.791      49913.854      56155.468      1.3163189    
    391000   302.73705     -447.40721      45942.266      51036.323      50670.366      56085.666      1.3179571    
    392000   299.83685      66.52347       45813.281      50858.537      50912.988      56124.343      1.3170489    
    393000   297.16987      200.17943      45842.103      50842.484      51006.322      56120.301      1.3171438    
    394000   300.24106      945.50547      45783.5        50835.558      51608.386      56045.795      1.3188948    
    395000   301.42693      1425.101       45827.263      50899.275      52064.909      56084.234      1.3179908    
    396000   295.97228     -313.36086      45806.562      50786.791      50531.128      55943.105      1.3213157    
    397000   301.99226      1400.9969      45841.804      50923.329      52066.622      55955.749      1.3210172    
    398000   298.84176     -631.49722      45907.993      50936.506      50420.837      55991.739      1.320168     
    399000   300.2907      -411.90523      45954.973      51007.866      50668.586      56478.719      1.3087851    
    400000   294.85899     -1551.0156      45873.787      50835.283      49564.535      56178.116      1.3157882    
    401000   303.18585      57.261116      45856.22       50957.829      51004.201      55529.042      1.3311684    
    402000   299.48026      220.72928      45833.07       50872.326      51052.281      55901.972      1.322288     
    403000   305.35593      1286.2347      45848.738      50986.862      52033.725      55807.646      1.3245229    
    404000   300.38392     -760.89014      45785.115      50839.577      50219.497      55879.231      1.3228261    
    405000   300.58815      974.54027      45825.136      50883.035      51678.58       55974.362      1.3205779    
    406000   305.91378     -355.42893      45900.093      51047.604      50757.425      55980.592      1.3204309    
    407000   299.78369     -771.15377      45870.579      50914.941      50281.044      56364.011      1.3114486    
    408000   299.6012      -1783.1888      45807.184      50848.475      49387.831      56165.697      1.3160792    
    409000   300.29127      551.86144      45820.979      50873.881      51324.918      56040.942      1.319009     
    410000   300.72834     -248.94555      45836.165      50896.422      50692.509      56164.98       1.316096     
    411000   299.17968      1124.806       45793.397      50827.596      51748.643      56147.199      1.3165128    
    412000   300.14288      1398.0551      45947.332      50997.738      52146.479      56340.688      1.3119915    
    413000   303.99627     -1252.4119      45830.9        50946.146      49924.623      55927.437      1.3216859    
    414000   303.27844     -1309.1637      45776.717      50879.884      49813.611      55846.853      1.323593     
    415000   298.56711     -1354.2626      45788.942      50812.833      49710.153      55830.411      1.3239828    
    416000   299.84489     -665.23759      45894.344      50939.736      50395.728      56072.795      1.3182597    
    417000   302.03675     -718.60666      45932.066      51014.339      50428.098      55938.311      1.321429     
    418000   296.68222     -313.59304      45877.144      50869.319      50613.288      55982.284      1.320391     
    419000   299.23247      91.899554      45768.91       50803.997      50878.787      55802.66       1.3246412    
    420000   300.14391      193.20896      45814.971      50865.394      51021.737      55484.807      1.3322296    
    421000   298.35434      277.35347      45910.389      50930.7        51157.551      56083.18       1.3180156    
    422000   296.95645     -2275.5577      45830.816      50827.605      48976.752      55770.948      1.3253945    
    423000   301.09831     -471.89751      45826.116      50892.599      50508.851      55759.983      1.3256551    
    424000   297.33983     -1037.152       45865.089      50868.329      50022.598      55913.173      1.3220231    
    425000   304.67593     -1452.2816      45896.946      51023.628      49831.444      56288.097      1.3132173    
    426000   300.73529     -953.06793      45881.974      50942.348      50159.526      56320.116      1.3124708    
    427000   293.44777     -940.71037      45782.612      50720.362      49953.096      55925.999      1.3217199    
    428000   303.01307     -319.17983      45854.947      50953.648      50691.415      56334.779      1.3121291    
    429000   306.39967     -1291.7368      45880.056      51035.743      49977.187      56190.587      1.3154962    
    430000   299.67135     -684.60356      45953.008      50995.48       50430.684      56568.675      1.3067038    
    431000   301.69473     -185.70297      45868.686      50945.204      50791.971      56579.613      1.3064512    
    432000   303.89201      300.70272      45927.625      51041.117      51286.925      56050.883      1.318775     
    433000   306.06379     -2467.964       45888.293      51038.328      49009.563      56365.971      1.311403     
    434000   299.18392     -1792.4462      45904.458      50938.727      49469.396      56207.967      1.3150894    
    435000   297.66691      1432.1202      45835.085      50843.829      52023.539      56483.302      1.3086789    
    436000   300.32244     -486.14314      45882.618      50936.046      50537.654      56191.457      1.3154758    
    437000   303.67616      262.51723      45815.131      50924.99       51140.14       56196.212      1.3153645    
    438000   294.18414      381.26426      45907.758      50857.899      51172.372      56556.468      1.3069859    
    439000   302.32267     -6.6557125      45808.13       50895.214      50889.764      56150.138      1.3164439    
    440000   301.37361      1500.7432      45884.662      50955.777      52184.464      56138.247      1.3167227    
    441000   301.28276      162.51852      45927.323      50996.909      51130.717      56455.057      1.3093336    
    442000   299.59534     -452.30378      45794.584      50835.777      50464.536      56279.465      1.3134188    
    443000   296.45408     -705.8114       45791.463      50779.799      50201.19       56210.906      1.3150207    
    444000   299.96228     -198.25493      45918.874      50966.241      50803.257      56369.583      1.311319     
    445000   299.08286     -540.19489      45918.672      50951.242      50504.785      56670          1.3043675    
    446000   299.71436     -98.444987      45764.46       50807.655      50727.095      56111.652      1.3173468    
    447000   303.19561      356.5619       45876.849      50978.622      51272.002      56418.116      1.310191     
    448000   300.64437      2844.9298      45936.287      50995.131      53311.263      55823.346      1.3241504    
    449000   300.89131      475.48305      45847.861      50910.861      51297.489      55754.865      1.3257768    
    450000   296.23251     -1469.6078      45764.666      50749.273      49546.934      56098.311      1.3176601    
    451000   299.5951       454.45385      45813.044      50854.233      51226.511      56169.77       1.3159837    
    452000   302.52079     -608.77272      45896.653      50987.072      50489.482      56045.502      1.3189016    
    453000   297.85965     -707.98852      45869.186      50881.173      50303.163      55980.018      1.3204445    
    454000   302.40366     -1736.8623      45908.08       50996.528      49578.881      55966.318      1.3207677    
    455000   301.73238     -1138.0146      45775.787      50852.939      49923.798      55983.206      1.3203693    
    456000   306.77854      235.41181      45964.39       51126.452      51318.363      55897.906      1.3223841    
    457000   299.21806      1334.2289      45817.48       50852.324      51935.851      55684.41       1.3274542    
    458000   297.33696      58.50599       45830.199      50833.39       50880.919      55702.702      1.3270183    
    459000   298.12885     -422.87447      45889.65       50906.166      50563.295      55595.966      1.329566     
    460000   293.5125      -1844.6335      45733.218      50672.057      49163.778      56065.494      1.3184314    
    461000   300.74107     -78.873658      45877.49       50937.962      50873.718      55850.141      1.3235151    
    462000   298.51085      5.949474       45792.716      50815.66       50820.522      56041.148      1.3190041    
    463000   303.02435     -38.616425      45833.76       50932.652      50901.201      55845.054      1.3236357    
    464000   304.7153       1181.4616      45890.765      51018.11       51984.945      56112.151      1.3173351    
    465000   296.03597      456.17725      45873.178      50854.478      51226.397      55903.362      1.3222551    
    466000   297.40189     -186.62882      45855.978      50860.263      50709.029      55564.083      1.3303289    
    467000   297.1479      -1790.0175      45800.978      50800.989      49344.194      55803.962      1.3246103    
    468000   303.3888       442.01178      45857.745      50962.769      51321.277      55614.75       1.3291169    
    469000   300.41428     -527.50696      45883.395      50938.368      50509.198      55785.997      1.3250369    
    470000   294.30249      1391.4097      45892.173      50844.304      51976.742      55806.329      1.3245542    
    471000   300.23791      2037.4252      45868.425      50920.43       52579.615      55838.967      1.32378      
    472000   295.66313     -61.987632      45725.896      50700.923      50650.3        55996.963      1.3200449    
    473000   303.70823     -438.93613      45878.052      50988.451      50633.134      55505.822      1.3317253    
    474000   294.57105      1537.3652      45820.248      50776.899      52027.435      55775.483      1.3252867    
    475000   301.64972      200.31034      45812.677      50888.439      51051.214      55719.833      1.3266103    
    476000   303.83407     -229.44425      45811.935      50924.451      50737.465      55880.055      1.3228066    
    477000   298.94941     -395.08634      45785.24       50815.564      50494.786      55671.979      1.3277506    
    478000   303.36636      160.29228      45806.688      50911.334      51041.425      55649.172      1.3282948    
    479000   298.90331      110.92471      45839.43       50868.978      50959.052      55679.418      1.3275732    
    480000   303.36739      863.64636      45847.693      50952.357      51659.697      56158.661      1.3162441    
    481000   300.6705      -1510.2149      45846.446      50905.73       49668.479      56175.007      1.3158611    
    482000   297.58664      171.78702      45861.54       50868.933      51010.15       56366.411      1.3113928    
    483000   303.02451     -334.10815      45875.133      50974.027      50700.99       56034.846      1.3191525    
    484000   296.31219      452.50554      45754.507      50740.455      51107.532      55623.383      1.3289106    
    485000   297.63204      1946.7051      45848.481      50856.638      52441.896      55837.239      1.3238209    
    486000   304.77395      316.73708      45888.168      51016.499      51274.222      55792.692      1.3248779    
    487000   302.7554       1342.8189      45901.293      50995.659      52094.698      56120.304      1.3171437    
    488000   296.26972      1180.8612      45858.429      50843.662      51806.039      55881.823      1.3227647    
    489000   305.68681     -460.197        45912.935      51056.626      50681.623      55874.692      1.3229336    
    490000   299.10485     -985.14832      45826.061      50859          50049.689      56329.802      1.3122451    
    491000   299.36938     -286.10802      45902.861      50940.252      50705.565      56244.839      1.3142273    
    492000   298.00043     -913.74637      45750.422      50764.778      50015.448      56230.488      1.3145627    
    493000   299.55799      367.79044      45811.853      50852.417      51153.172      56070.632      1.3183105    
    494000   299.69041      1254.5376      45925.081      50967.874      51989.5        55838.32       1.3237953    
    495000   306.45385      803.86303      45799.291      50955.89       51609.908      55786.896      1.3250156    
    496000   305.74843     -1412.8932      45867.873      51012.602      49851.348      56356.229      1.3116297    
    497000   294.08784      949.85397      45839.117      50787.637      51564.121      56053.115      1.3187225    
    498000   297.26975      908.60409      45825.476      50827.537      51562.376      55455.174      1.3329415    
    499000   302.77056     -590.19041      45846.354      50940.975      50461.663      55686.499      1.3274044    
    500000   300.55918     -136.99675      45816.484      50873.895      50762.242      55883.47       1.3227257    
    501000   301.33095     -2459.1428      45843.774      50914.171      48914.213      55764.952      1.325537     
    502000   298.42282     -959.54442      45766.137      50787.6        50011.916      55429.876      1.3335499    
Loop time of 454.235 on 32 procs for 500000 steps with 5646 atoms

Performance: 95.105 ns/day, 0.252 hours/ns, 1100.753 timesteps/s, 6.215 Matom-step/s
99.9% CPU use with 32 MPI tasks x no OpenMP threads

MPI task timing breakdown:
Section |  min time  |  avg time  |  max time  |%varavg| %total
---------------------------------------------------------------
Pair    | 202.75     | 222.35     | 233.17     |  41.6 | 48.95
Bond    | 14.23      | 15.687     | 17.216     |  14.8 |  3.45
Neigh   | 127.52     | 127.66     | 127.78     |   0.8 | 28.10
Comm    | 63.063     | 75.343     | 96.116     |  75.9 | 16.59
Output  | 0.017102   | 0.021441   | 0.15218    |  16.0 |  0.00
Modify  | 9.9072     | 10.239     | 10.484     |   4.9 |  2.25
Other   |            | 2.941      |            |       |  0.65

Nlocal:        176.438 ave         192 max         145 min
Histogram: 1 0 0 0 3 4 9 9 4 2
Nghost:        4733.59 ave        4784 max        4691 min
Histogram: 3 1 6 6 2 4 4 3 2 1
Neighs:        64087.3 ave       69979 max       51174 min
Histogram: 1 0 0 0 1 4 9 11 3 3

Total # of neighbors = 2050794
Ave neighs/atom = 363.22954
Ave special neighs/atom = 10.219979
Neighbor list builds = 22443
Dangerous builds = 0

unfix EQ


# ============================================
# Heating scan: enthalpy vs temperature
# ============================================

variable T equal 300
variable T_end equal 900
variable dT equal 10

shell echo "# T(K)    Enthalpy(kcal/mol)    Volume(A^3)" > H_T.dat

label loop_T
if "${T} > ${T_end}" then "jump SELF end_loop"

reset_timestep 0
velocity all create ${T} 293847 dist gaussian mom yes rot yes
velocity all create 300 293847 dist gaussian mom yes rot yes

fix NPT all npt temp ${T} ${T} 100.0 iso 1.0 1.0 1000.0
fix NPT all npt temp 300 ${T} 100.0 iso 1.0 1.0 1000.0
fix NPT all npt temp 300 300 100.0 iso 1.0 1.0 1000.0

thermo_style custom step temp press enthalpy vol density
thermo 2000

run 500000     # 500 ps per temperature
Generated 36 of 36 mixed pair_coeff terms from geometric mixing rule
Per MPI rank memory allocation (min/avg/max) = 12.76 | 12.85 | 12.99 Mbytes
   Step          Temp          Press         Enthalpy        Volume        Density    
         0   300           -937.65827      50056.147      55429.876      1.3335499    
      2000   300.88064     -182.00084      50846.646      55770.342      1.3254088    
      4000   296.64414     -158.45261      50673.016      55856.137      1.323373     
      6000   297.3848       755.6035       51435.921      55659.735      1.3280427    
      8000   296.40389      910.14549      51639.699      55628.716      1.3287832    
     10000   299.36786     -111.79966      50784.109      55534.909      1.3310278    
     12000   303.05875      713.15083      51463.067      55393.892      1.3344162    
     14000   303.78319     -2498.6798      48937.091      55509.936      1.3316265    
     16000   297.87077      942.09992      51613.433      55428.047      1.3335939    
     18000   299.75667      478.64222      51255.385      55562.055      1.3303774    
     20000   297.46788     -940.81279      50124.625      55736.504      1.3262135    
     22000   299.8623      -970.19465      50057.168      55560.237      1.330421     
     24000   299.45692      607.97898      51316.198      55504.083      1.331767     
     26000   302.54659      597.36438      51479.883      55652.016      1.3282269    
     28000   300.55229      539.4791       51315.813      55980.74       1.3204274    
     30000   297.24732     -510.97242      50354.634      55904.616      1.3222254    
     32000   295.79776      777.54698      51385.655      55822.421      1.3241723    
     34000   297.24943      590.06052      51227.45       56056.262      1.3186485    
     36000   300.7461       364.67969      51205.272      56322.308      1.3124197    
     38000   298.86162     -1373.2184      49837.583      56154.54       1.3163407    
     40000   296.81149      512.02049      51298.567      56161.453      1.3161786    
     42000   307.02106      1669.6151      52517.411      55926.675      1.3217039    
     44000   306.54466      515.56906      51412.471      56377.154      1.3111429    
     46000   300.34702     -1321.4848      49839.397      56234.853      1.3144607    
     48000   302.34334     -55.341353      50984.77       55997.333      1.3200362    
     50000   302.19534      441.65548      51365.645      55900.048      1.3223335    
     52000   297.69971      1122.1761      51689.112      55843.091      1.3236822    
     54000   306.56833      1155.3497      51996.616      56285.327      1.313282     
     56000   300.21069      1918.1007      52321.214      56015.324      1.3196122    
     58000   303.27483      378.09685      51288.292      55669.253      1.3278156    
     60000   297.19119     -71.735026      50836.242      55936.117      1.3214808    
     62000   300.3966       763.88223      51532.615      56236.287      1.3144272    
     64000   302.8459      -784.44487      50270.845      55962.439      1.3208592    
     66000   303.85574      170.29716      51085.004      56319.435      1.3124866    
     68000   302.08358      764.4659       51537.012      56351.24       1.3117458    
     70000   299.38295     -1291.2068      49836.331      56103.987      1.3175268    
     72000   299.93575      279.40972      51104.651      55876.105      1.3229001    
     74000   294.81081      934.66599      51533.595      55910.805      1.3220791    
     76000   302.24872     -962.31857      50062.594      56295.619      1.3130419    
     78000   295.69388     -1472.4137      49675.981      56189.927      1.3155117    
     80000   298.65202      938.9783       51650.176      56000.323      1.3199657    
     82000   301.78846     -273.10127      50723.862      56686.898      1.3039787    
     84000   301.86141      88.006108      51064.903      56113.734      1.3172979    
     86000   302.88483     -190.75948      50805.13       56131.549      1.3168798    
     88000   302.15577      803.09521      51631.911      56200.841      1.3152562    
     90000   294.15276      1515.3997      52066.257      55987.901      1.3202586    
     92000   301.61861      514.81488      51349.715      56296.766      1.3130151    
     94000   304.06065     -314.80945      50741.575      56263.407      1.3137936    
     96000   300.15223     -204.26532      50737.21       56279.839      1.31341      
     98000   299.15352     -2382.7576      48935.889      56304.607      1.3128323    
    100000   297.52473     -1630.1877      49453.275      56160.425      1.3162027    
    102000   294.23369      680.00076      51414.167      55919.915      1.3218637    
    104000   305.73797      308.86224      51198.473      55847.216      1.3235844    
    106000   300.89628     -900.28806      50152.449      55957.613      1.3209732    
    108000   299.27648      1594.0164      52247.843      55570.307      1.3301799    
    110000   296.63551     -210.1061       50629.293      55560.402      1.330417     
    112000   294.90959     -139.20215      50748.084      55481.789      1.3323021    
    114000   297.98856     -475.69589      50378.769      55243.86       1.3380402    
    116000   301.427        1629.4052      52284.789      55580.501      1.3299359    
    118000   294.71648     -343.61821      50545.189      55903.11       1.3222611    
    120000   300.10943      467.49465      51242.116      55741.96       1.3260837    
    122000   296.21893     -2041.9859      49136.43       56072.753      1.3182607    
    124000   302.98316     -99.37407       50883.702      55709.858      1.3268479    
    126000   299.59205     -434.06668      50438.3        55755.709      1.3257567    
    128000   297.19086      370.58421      51087.078      55511.213      1.3315959    
    130000   300.03945     -153.86138      50716.416      55448.061      1.3331125    
    132000   302.92314     -420.67336      50611.894      55673.467      1.3277151    
    134000   294.36591      1553.6705      52049.842      55691.467      1.327286     
    136000   301.48933     -158.25694      50781.583      55752.206      1.32584      
    138000   305.00918      449.5575       51311.309      55375.165      1.3348674    
    140000   299.93828     -445.84776      50558.097      55672.928      1.327728     
    142000   299.16875     -2064.2599      49108.702      55776.861      1.325254     
    144000   305.61507     -587.02467      50380.42       55803.962      1.3246103    
    146000   301.5264       37.845811      50883.106      55538.186      1.3309492    
    148000   295.76394      665.59094      51436.85       55849.635      1.3235271    
    150000   295.5398      -477.78092      50506.718      55875.536      1.3229136    
    152000   299.82822     -669.33868      50349.374      55753.203      1.3258163    
    154000   300.78479     -537.07384      50421.092      55892.707      1.3225071    
    156000   303.13458      1501.0428      52112.922      56302.028      1.3128924    
    158000   301.13408      687.5472       51460.952      55956.517      1.320999     
    160000   303.62066     -1594.0339      49617.614      55821.176      1.3242019    
    162000   301.65498      1512.6573      52004.59       55628.173      1.3287962    
    164000   298.14769      304.6168       51101.103      55905.999      1.3221927    
    166000   302.07638     -537.8996       50550.359      55945.735      1.3212536    
    168000   302.43431     -137.34453      50833.553      55454.397      1.3329602    
    170000   299.31949      382.68197      51133.591      55854.007      1.3234235    
    172000   301.31884      674.87685      51399.912      55652.794      1.3282083    
    174000   299.76868     -1381.9417      49657.587      55639.021      1.3285371    
    176000   300.15903     -210.10031      50666.304      55625.243      1.3288662    
    178000   299.16035     -517.99267      50388.638      55875.344      1.3229181    
    180000   298.61748      94.572673      50900.268      55491.18       1.3320767    
    182000   294.96044      1276.7422      51739.853      55667.579      1.3278556    
    184000   302.92539      74.758145      50843.101      55499.255      1.3318828    
    186000   296.28227     -1276.7412      49786.919      55566.053      1.3302817    
    188000   299.19036      277.79953      51000.716      55309.754      1.3364461    
    190000   302.88593     -154.0264       50733.372      55636.444      1.3285987    
    192000   301.95046      980.63289      51657.094      55508.241      1.3316672    
    194000   294.6894      -1187.5747      49758.121      56203.59       1.3151919    
    196000   306.5908      -2048.136       49290.791      56039.497      1.319043     
    198000   298.74419     -142.34654      50618.77       55760.15       1.3256511    
    200000   301.30839      871.96696      51685.553      55984.8        1.3203317    
    202000   295.14829     -1712.9911      49420.821      56332.282      1.3121873    
    204000   299.06379     -1019.7497      49940.408      55951.598      1.3211152    
    206000   300.60365      585.56485      51416.42       56166.836      1.3160525    
    208000   298.3524      -760.8716       50205.418      56377.677      1.3111307    
    210000   298.68938      12.783957      50952.582      56056.112      1.318652     
    212000   300.02964      851.20926      51617.107      55923.08       1.3217889    
    214000   299.2194       861.4716       51558.735      55990.905      1.3201877    
    216000   300.35591     -772.5424       50161.388      55773.369      1.3253369    
    218000   300.48545      1.4545156      50902.614      55849.13       1.3235391    
    220000   302.62782     -2203.0677      49099.869      56110.64       1.3173705    
    222000   299.34704     -2259.3908      49049.829      55966.242      1.3207695    
    224000   299.33307     -1799.6088      49350.846      55839.315      1.3237717    
    226000   301.85834     -458.38861      50596.746      55756.6        1.3257355    
    228000   299.87195     -281.70595      50672.289      55647.212      1.3283416    
    230000   295.59201     -1582.0075      49446.982      55851.506      1.3234828    
    232000   297.70734      445.22555      51296.064      56041.598      1.3189935    
    234000   298.8628       720.50451      51368.16       55723.997      1.3265112    
    236000   300.96676     -610.71781      50328.828      55755.753      1.3257557    
    238000   298.71081      1539.3488      52022.234      55435.647      1.3334111    
    240000   300.85454      734.22505      51358.734      55332.096      1.3359065    
    242000   302.06262      832.40155      51473.766      55372.92       1.3349215    
    244000   302.67899      1411.9116      51940.479      55469.121      1.3326064    
    246000   302.47706      575.21086      51311.552      55792.563      1.324881     
    248000   298.41171     -1792.7257      49315.071      55745.396      1.326002     
    250000   301.67581     -343.41197      50558.459      55648.249      1.3283168    
    252000   297.77929     -1875.9127      49241.646      55976.264      1.320533     
    254000   302.94959     -386.30239      50524.164      55874.323      1.3229423    
    256000   307.17003     -536.92153      50485.076      55802.508      1.3246449    
    258000   297.28857     -455.18862      50439.015      55922.675      1.3217984    
    260000   300.55563      610.69233      51409.08       56053.686      1.3187091    
    262000   294.97382      1653.4555      52081.395      55630.825      1.3287328    
    264000   297.23849     -98.784577      50703.784      55847.517      1.3235773    
    266000   304.74944      527.85707      51400.19       55953.498      1.3210703    
    268000   299.38271      1566.7477      52104.62       55754.861      1.3257769    
    270000   304.66584     -139.3908       50767.238      55564.77       1.3303124    
    272000   300.94257      932.10109      51555.533      55290.231      1.336918     
    274000   300.58862     -473.51307      50413.68       55903.989      1.3222403    
    276000   296.54276      1696.8224      52075.379      55752.109      1.3258423    
    278000   288.60364     -375.04026      50387.273      55703.886      1.3269901    
    280000   299.10813      607.21919      51297.434      55978.633      1.3204771    
    282000   301.93076     -1147.2977      49966.276      55993.21       1.3201334    
    284000   303.37934     -520.60952      50484.989      55775.232      1.3252926    
    286000   300.08595      68.930983      50886.359      55443.917      1.3332122    
    288000   298.27278      643.30995      51262.807      55536.983      1.3309781    
    290000   302.19804      164.06859      50952.161      56083.626      1.3180051    
    292000   307.37484      89.090551      51002.726      56137.184      1.3167476    
    294000   298.5391      -466.88961      50509.741      55935.37       1.3214984    
    296000   294.41619      2362.2251      52631.98       55625.288      1.3288651    
    298000   301.17625      1819.4728      52275.999      55547.186      1.3307336    
    300000   297.71391     -697.19062      50262.288      55520.404      1.3313755    
    302000   300.78925      292.38874      51075.429      55649.742      1.3282812    
    304000   303.53986     -1552.5031      49705.751      55783.722      1.325091     
    306000   303.52995      1159.7658      51907.013      55783.383      1.325099     
    308000   298.52592     -553.00935      50237.179      55743.426      1.3260488    
    310000   295.78683     -693.12319      50135.978      55593.928      1.3296147    
    312000   300.9982       50.072785      51007.95       55955.087      1.3210328    
    314000   304.55795     -831.98573      50263.781      55879.986      1.3228082    
    316000   304.12208      194.53599      51160.864      55967.353      1.3207433    
    318000   297.08324     -1139.7371      49882.581      56036.052      1.3191241    
    320000   299.25824      107.0522       50971.315      56169.461      1.315991     
    322000   304.61448     -33.522854      50813.71       56443.342      1.3096054    
    324000   300.65956      1852.5228      52346.641      56089.569      1.3178654    
    326000   300.90786      1182.8515      51825.362      55476.606      1.3324266    
    328000   297.95934      171.5818       50955.864      55160.549      1.3400611    
    330000   297.50795     -13.69074       50866.53       55806.092      1.3245598    
    332000   295.43333     -244.28903      50597.443      55306.746      1.3365188    
[...]
     80000   907.50113      139.79918      73116.623      86566.418      0.85389354   
     82000   891.64519     -799.37435      71119.525      85403.503      0.86552076   
     84000   890.45745     -1650.8366      70407.835      87225.863      0.84743793   
     86000   898.98065      873.34754      73696.328      84806.447      0.87161421   
     88000   893.22206      385.85386      72940.691      83165.725      0.88880973   
     90000   886.70064     -66.632595      72539.648      82605.401      0.89483864   
     92000   893.2306       2962.5869      75932.095      81978.835      0.90167791   
     94000   899.5395      -821.05356      71527.766      84078.359      0.87916208   
     96000   912.96784     -471.31687      72420.428      86943.8        0.85018719   
     98000   890.37113     -1397.896       70783.335      82895.335      0.89170886   
    100000   906.92195     -319.89589      72516.448      83496.296      0.88529083   
    102000   877.43521     -801.16004      71263.906      83480.691      0.88545632   
    104000   896.76416     -1837.7432      70332.781      81505.625      0.90691292   
    106000   894.19432     -1051.7464      71169.564      84675.45       0.87296264   
    108000   893.00821     -129.54129      72513.754      87196.999      0.84771845   
    110000   909.20629     -405.83002      72364.135      83971.884      0.88027684   
    112000   893.08278      99.695676      72905.307      87252.575      0.84717849   
    114000   892.97765      571.35179      73353.425      83799.637      0.88208621   
    116000   896.99228     -2739.1507      69218.409      83349.231      0.88685287   
    118000   894.48229     -339.9977       72210.755      84406.555      0.87574366   
    120000   879.26347     -541.25505      71454.061      87214.982      0.84754365   
    122000   890.14108      3045.9146      76102.021      84753.61       0.87215759   
    124000   899.6667       1195.571       73864.337      83968.538      0.88031192   
    126000   910.0652      -613.21132      71943.582      84347.227      0.87635963   
    128000   890.26506      409.30433      72872.184      81721.224      0.90452029   
    130000   893.87298      1390.351       73764.881      79969.005      0.92433944   
    132000   882.27652     -26.040805      72372.183      83474.087      0.88552637   
    134000   901.45742      637.27799      73261.324      84229.847      0.8775809    
    136000   900.93886      506.2326       73369.214      88459.484      0.83561989   
    138000   908.10045     -800.96553      71778.198      86193.025      0.85759265   
    140000   907.73278     -1715.7461      70464.891      86712.945      0.85245063   
    142000   907.70609     -897.15102      71873.138      89698.598      0.82407648   
    144000   915.95705      389.73828      73478.091      84540.705      0.87435402   
    146000   893.48268      13.884296      72313.043      82787.31       0.89287241   
    148000   899.40295      1595.1257      74616.316      82978.124      0.89081919   
    150000   892.62078      54.206811      72454.709      84199.955      0.87789245   
    152000   898.74989     -608.19726      71915.452      88037.194      0.83962813   
    154000   894.19493     -228.30398      72365.387      86802.407      0.85157207   
    156000   895.44157      441.14259      73484.436      84791.583      0.87176701   
    158000   893.73794     -979.69724      71596.631      84014.169      0.8798338    
    160000   900.30545      1181.4973      73792.423      82797.02       0.8927677    
    162000   904.47874      1719.6889      75017.354      86087.293      0.85864594   
    164000   903.10941     -1035.5978      71343.07       81675.214      0.90502983   
    166000   901.25523     -387.9281       71869.125      84071.472      0.8792341    
    168000   899.43108      172.27601      72892.294      84132.413      0.87859723   
    170000   903.17936      346.24026      73034.249      82123.425      0.90009038   
    172000   898.86909      1364.1704      74422.359      85360.251      0.86595932   
    174000   893.93255      1495.8948      74466.272      83605.285      0.88413675   
    176000   904.17189      1176.4669      74042.066      84163.619      0.87827147   
    178000   895.18284      379.94284      72910.223      85931.449      0.86020317   
    180000   889.62083     -737.07836      71491.493      86323.803      0.85629342   
    182000   892.59634     -463.93286      71952.482      82515.027      0.89581871   
    184000   918.1201       136.81404      72681.989      82422.458      0.8968248    
    186000   909.96018     -2623.5871      69360.697      83837.318      0.88168976   
    188000   880.81297     -316.24446      71677.98       80765.099      0.91522831   
    190000   915.57477      544.3656       73403.428      83824.96       0.88181975   
    192000   884.3318       29.998688      72420.856      88056.097      0.83944789   
    194000   886.70753     -835.98277      71044.013      85742.093      0.86210287   
    196000   920.57412     -567.36528      72343.27       84312.691      0.87671861   
    198000   890.61882      440.90249      73157.523      85603.226      0.8635014    
    200000   887.75329     -630.88416      71475.381      82218.996      0.89904412   
    202000   900.81797     -1098.2096      71274.241      84272.268      0.87713914   
    204000   903.9442       357.60409      73226.968      84884.454      0.87081322   
    206000   900.21777      1400.761       74382.205      82011.571      0.90131799   
    208000   893.88012      97.461034      72456.16       83546.434      0.88475954   
    210000   882.52675     -977.51462      71212.85       85566.25       0.86387454   
    212000   907.97502     -838.47993      71679.627      84261.231      0.87725404   
    214000   888.50552     -1346.7678      70608.42       87384.73       0.84589728   
    216000   892.70262      1924.4569      74779.437      84379.391      0.87602558   
    218000   885.62766      2279.5525      75196.815      83235.908      0.88806029   
    220000   894.18067     -851.89643      71547.003      81098.759      0.91146284   
    222000   891.1062      -44.988925      72443.789      81818.509      0.90344478   
    224000   899.55069      695.51409      73585.214      84350.618      0.8763244    
    226000   891.05035     -12.504945      72431.087      82677.987      0.89405304   
    228000   901.99189      1884.9695      74751.699      85085.447      0.86875615   
    230000   897.60683     -2026.1753      69643.093      85225.17       0.86733186   
    232000   892.44769     -416.7951       71684.608      82044.132      0.90096029   
    234000   901.58405      715.9844       73479.295      83306.358      0.88730929   
    236000   900.80372     -404.40057      71897.524      86420.129      0.85533898   
    238000   893.10979      1156.3733      74176.315      87591.93       0.84389629   
    240000   885.63317      382.47813      72651.221      86007.449      0.85944305   
    242000   890.42026     -428.91369      71880.831      86670.879      0.85286437   
    244000   904.04588      240.87977      72840.519      83454.665      0.88573245   
    246000   899.32646      21.340479      72609.904      83857.389      0.88147873   
    248000   886.7695      -223.0723       72240.349      83163.982      0.88882835   
    250000   885.6598      -1189.4496      70649.281      85145.396      0.86814447   
    252000   920.13181      153.54074      73019.482      84095.046      0.87898762   
    254000   896.1921       225.97918      73049.215      83973.931      0.88025538   
    256000   877.14188      1505.9962      74050.551      85250.182      0.86707739   
    258000   884.71112     -60.258027      72108.497      86257.967      0.85694698   
    260000   879.19399      1625.324       74075.69       83544.857      0.88477624   
    262000   892.27415     -1411.0606      71138.976      86167.899      0.85784272   
    264000   898.12606      54.532779      72991.515      83799.306      0.8820897    
    266000   904.60121      1090.1956      74200.744      85237.071      0.86721076   
    268000   891.98547     -189.8693       72014.573      85334.638      0.86621924   
    270000   895.69064      1149.8293      74273.788      86683.03       0.85274482   
    272000   905.17632     -56.435188      72457.401      84606.006      0.87367917   
    274000   917.66476      564.2533       73785.857      87565.764      0.84414846   
    276000   893.30364     -1107.7474      71191.959      85023.114      0.86939305   
    278000   895.89708      189.51282      73144.818      84042.056      0.87954184   
    280000   892.46379      558.26932      73075.936      83741.421      0.88269943   
    282000   899.5271      -309.89291      72361.533      86497.352      0.85457535   
    284000   914.80482     -281.11441      72677.628      88208.836      0.83799433   
    286000   896.92193     -497.72072      71809.843      89375.131      0.82705898   
    288000   895.32868     -704.9862       71726.045      86763.127      0.8519576    
    290000   891.44542     -1813.2333      70322.316      83592.544      0.88427151   
    292000   917.41891      53.965557      72773.97       85234.727      0.86723461   
    294000   901.18433      1153.9539      73900.188      85171.126      0.86788221   
    296000   897.1785      -836.21333      71723.912      85388.5        0.86567284   
    298000   914.90565     -214.65687      72644.305      83415.604      0.88614721   
    300000   894.53616     -1045.2656      71007.014      82977.095      0.89083023   
    302000   899.93576     -245.53302      72472.111      85629.465      0.86323679   
    304000   917.81604      1557.7818      74464.622      82709.097      0.89371674   
    306000   895.73112     -800.5163       71347.407      82893.188      0.89173195   
    308000   902.87459      2522.2678      75373.909      80421.949      0.91913347   
    310000   890.9258       96.724837      72409.731      82812.083      0.89260531   
    312000   902.45237     -1468.3269      70696.73       80597.164      0.91713531   
    314000   901.35074      514.40033      73344.344      83090.238      0.8896172    
    316000   900.43739      97.55512       72927.213      83317.075      0.88719514   
    318000   889.83282      366.60736      73079.912      85805.711      0.8614637    
    320000   892.48812      401.55683      72939.662      83297.041      0.88740854   
    322000   903.3882      -2139.155       70202.688      85045.881      0.86916032   
    324000   922.03578     -451.95134      72444.705      82598.206      0.89491659   
    326000   901.53042      536.50935      73051.336      82051.763      0.9008765    
    328000   893.93718      672.81136      73472.084      81575.149      0.90613999   
    330000   893.30724      2449.2343      75376.381      85912.911      0.86038878   
    332000   924.04656     -1372.9134      71265          87045.295      0.84919586   
    334000   899.07116     -1138.3543      71294.663      85773.573      0.86178647   
    336000   906.73723      477.26442      73714.818      86600.776      0.85355476   
    338000   896.02799     -52.019967      72535.916      84465.272      0.87513487   
    340000   900.71129      1814.8259      74819.204      83299.241      0.8873851    
    342000   896.50212      48.44333       72712.578      88200.666      0.83807196   
    344000   908.64418      105.57931      72914.708      82654.586      0.89430615   
    346000   913.41477      545.5812       73490.494      82838.361      0.89232216   
    348000   906.91389      127.31621      72918.269      82238.854      0.89882703   
    350000   919.4415       1216.8283      74217.793      82568.867      0.89523458   
    352000   895.15552     -749.0255       71573.021      83839.192      0.88167005   
    354000   899.47081      59.697694      72824.933      88283.572      0.83728494   
    356000   905.97696     -4100.0978      67522.115      84590.676      0.8738375    
    358000   885.96684      679.90003      73026.795      82605.124      0.89484164   
    360000   911.72826      149.6655       73151.8        84830.205      0.87137011   
    362000   887.53272     -270.51814      72386.111      83410.818      0.88619805   
    364000   908.26801     -1259.4         71015.603      86651.004      0.85305999   
    366000   896.96083      505.36214      73423.392      88817.097      0.83225536   
    368000   922.83955      851.96165      74180.305      87895.511      0.84098157   
    370000   903.31668     -720.71807      71736.473      84579.949      0.87394832   
    372000   904.85698     -443.08252      71744.949      82605.745      0.89483491   
    374000   910.68898      591.59384      73374.683      84270.781      0.87715462   
    376000   895.3339       546.06745      73095.894      82349.043      0.89762433   
    378000   906.73187     -261.57456      72424.004      82487.049      0.89612255   
    380000   915.80994      1002.4081      73970.308      83933.999      0.88067417   
    382000   884.74813      1221.3251      74169.369      82134.156      0.89997279   
    384000   899.10645     -1356.0082      70992.158      84257.791      0.87728985   
    386000   912.65213     -581.14759      72154.187      83597.399      0.88422016   
    388000   897.86829      1537.0348      74612.022      82540.297      0.89554444   
    390000   911.9318       1193.6353      74500.275      87675.33       0.84309355   
    392000   888.38381     -1101.9131      71241.07       85129.13       0.86831035   
    394000   891.55536      1302.534       73851.874      84327.589      0.87656372   
    396000   917.14833     -378.6957       72109.355      85922.218      0.86029558   
    398000   901.16496      462.34126      73068.19       83292.323      0.88745879   
    400000   913.31788     -941.49894      71489.574      83837.576      0.88168705   
    402000   902.82894     -1604.6809      70797.575      86129.263      0.85822754   
    404000   903.698       -355.96135      71978.267      85523.396      0.86430741   
    406000   909.14657      545.11897      73440.909      86795.531      0.85163953   
    408000   901.20016      698.07299      73426.791      83625.683      0.88392109   
    410000   908.97581      900.34389      73982.067      86392.137      0.85561612   
    412000   909.81559     -1052.3706      71650.57       83969.289      0.88030405   
    414000   912.54006      654.55068      73716.365      82200.609      0.89924522   
    416000   917.06615     -1435.1574      71101.244      84858.045      0.87108423   
    418000   908.80905     -844.34505      71579.818      84959.824      0.8700407    
    420000   902.75244      686.23356      73409.921      85640.584      0.86312472   
    422000   891.48169      1529.2186      74255.278      83360.555      0.8867324    
    424000   912.01734      958.61813      73956.322      84081.938      0.87912466   
    426000   900.28608     -255.41741      72037.357      82787.577      0.89286953   
    428000   898.56667     -1062.0561      71129.117      84932.397      0.87032166   
    430000   882.84994     -448.45596      71953.462      84963.36       0.87000449   
    432000   907.94998     -31.042738      72717.444      84230.048      0.8775788    
    434000   898.03997     -500.01058      72179.568      81314.671      0.90904267   
    436000   899.16681     -104.23073      72470.206      83033.909      0.8902207    
    438000   888.65387      1377.6147      73952.678      81682.471      0.90494942   
    440000   884.06379      396.28887      72863.938      83673.96       0.8834111    
    442000   903.55157     -981.14192      71469.679      83777.038      0.88232416   
    444000   910.27198     -838.15785      71395.327      80110.349      0.92270856   
    446000   885.50321     -1101.7064      71029.175      85252.386      0.86705497   
    448000   889.86138      1176.7146      73840.74       83249.727      0.88791288   
    450000   916.65837     -487.00412      72756.795      85644.066      0.86308962   
    452000   897.15208      258.95613      72789.753      84276.002      0.87710028   
    454000   897.30278     -1045.1535      71066.879      82066.234      0.90071764   
    456000   902.74547      642.39393      73346.933      83354.326      0.88679867   
    458000   895.90889     -775.60698      71725.791      83202.114      0.88842099   
    460000   885.88137      421.61767      72817.307      86769.173      0.85189823   
    462000   896.14964     -773.96401      71959.493      85296.803      0.86660346   
    464000   911.4246       1428.2987      74469.186      85106.426      0.868542     
    466000   887.5358      -1062.8067      71127.492      82771.323      0.89304486   
    468000   896.47851      1534.5474      74338.573      84914.077      0.87050944   
    470000   905.72624     -1606.313       70477.682      82939.65       0.89123242   
    472000   904.32408      411.08778      73069.875      82421.844      0.89683149   
    474000   889.18417      426.22427      72993.555      85410.244      0.86545245   
    476000   899.89249      1386.6148      74371.997      82695.767      0.89386081   
    478000   912.7248      -272.89066      72739.668      84473.155      0.8750532    
    480000   891.36316     -756.31147      71479.155      84260.042      0.87726642   
    482000   904.94097      2017.3075      75366.504      88539.29       0.8348667    
    484000   888.9967      -975.55985      71273.647      88647.438      0.83384818   
    486000   910.23266     -909.26061      71584.663      85565.881      0.86387827   
    488000   916.10932     -387.22884      72198.809      85678.779      0.86273994   
    490000   898.41631     -492.50358      71822.015      82842.775      0.89227462   
    492000   903.53851     -757.43082      71665.638      85922.272      0.86029504   
    494000   888.35874     -994.62757      71195.239      84372.27       0.87609951   
    496000   898.94532      631.08319      73600.506      84820.176      0.87147313   
    498000   908.21745     -424.04002      72181.455      81724.522      0.90448379   
    500000   905.33404      1473.718       74314.853      85533.436      0.86420595   
Loop time of 420.143 on 32 procs for 500000 steps with 5646 atoms

Performance: 102.822 ns/day, 0.233 hours/ns, 1190.072 timesteps/s, 6.719 Matom-step/s
100.0% CPU use with 32 MPI tasks x no OpenMP threads

MPI task timing breakdown:
Section |  min time  |  avg time  |  max time  |%varavg| %total
---------------------------------------------------------------
Pair    | 138.55     | 146.18     | 152.87     |  28.4 | 34.79
Bond    | 14.718     | 15.369     | 15.917     |   7.4 |  3.66
Neigh   | 179.06     | 179.09     | 179.11     |   0.1 | 42.63
Comm    | 64.011     | 71.205     | 79.54      |  44.0 | 16.95
Output  | 0.0042513  | 0.0051918  | 0.033319   |   7.0 |  0.00
Modify  | 6.2131     | 6.3118     | 6.4145     |   2.7 |  1.50
Other   |            | 1.986      |            |       |  0.47

Nlocal:        176.438 ave         207 max         132 min
Histogram: 3 1 0 1 5 2 7 6 3 4
Nghost:        3522.72 ave        3706 max        3414 min
Histogram: 3 5 4 6 8 2 1 1 1 1
Neighs:        41425.5 ave       52481 max       29538 min
Histogram: 4 0 3 2 4 8 3 3 2 3

Total # of neighbors = 1325617
Ave neighs/atom = 234.7887
Ave special neighs/atom = 10.219979
Neighbor list builds = 42342
Dangerous builds = 0

variable H equal enthalpy
variable V equal vol
print "${T} ${H} ${V}" append H_T.dat
900 74314.8531119941 85533.4364784098

unfix NPT

variable T equal ${T}+${dT}
variable T equal 900+${dT}
variable T equal 900+10
jump SELF loop_T
if "${T} > ${T_end}" then "jump SELF end_loop"
jump SELF end_loop

print "Heating scan finished."
Heating scan finished.
Total wall time: 7:44:34
