LAMMPS data file via write_data, version 22 Aug 2018, timestep = 81

2946 atoms
8 atom types
3183 bonds
9 bond types
5100 angles
15 angle types
7674 dihedrals
25 dihedral types
1560 impropers
6 improper types

0.0000000000000000e+00 3.6994999999999997e+01 xlo xhi
0.0000000000000000e+00 3.6994999999999997e+01 ylo yhi
0.0000000000000000e+00 3.6994999999999997e+01 zlo zhi

Masses

1 12.0112
2 1.00797
3 15.9994
4 12.0112
5 15.9994
6 1.00797
7 14.0067
8 1.00797

Pair Coeffs # lj/class2/coul/long

1 0.054 4.01
2 0.02 2.995
3 0.24 3.535
4 0.054 4.01
5 0.24 3.535
6 0.013 1.098
7 0.065 4.07
8 0.013 1.098

Bond Coeffs # class2

1 1.42 400.395 -835.195 1313.01
2 1.53 299.67 -501.77 679.81
3 1.53 299.67 -501.77 679.81
4 1.101 345 -691.89 844.6
5 1.457 365.805 -699.637 998.484
6 1.006 466.74 -1073.6 1251.11
7 1.42 400.395 -835.195 1313.01
8 1.53 299.67 -501.77 679.81
9 0.965 532.506 -1282.9 2004.77

Angle Coeffs # class2

1 111.27 54.5381 -8.3642 -13.0838
2 112.67 39.516 -7.443 -9.5583
3 112.67 39.516 -7.443 -9.5583
4 110.77 41.453 -10.604 5.129
5 110.77 41.453 -10.604 5.129
6 111.91 60.7147 -13.3366 -13.0785
7 109.5 70 0 0
8 111.91 60.7147 -13.3366 -13.0785
9 111.27 54.5381 -8.3642 -13.0838
10 112.67 39.516 -7.443 -9.5583
11 112.67 39.516 -7.443 -9.5583
12 112.444 47.2337 -10.6612 -10.2062
13 110.954 50.8652 -4.4522 -10.0298
14 104.5 35.7454 -10.0067 -6.2729
15 105.8 52.7061 -12.109 -9.8681

BondBond Coeffs

1 11.4318 1.53 1.42
2 0 1.53 1.53
3 0 1.53 1.53
4 3.3872 1.53 1.101
5 3.3872 1.53 1.101
6 4.6217 1.53 1.457
7 0 1.457 1.42
8 4.6217 1.53 1.457
9 11.4318 1.53 1.42
10 0 1.53 1.53
11 0 1.53 1.53
12 -2.1113 1.457 1.457
13 -6.4168 1.457 1.006
14 -7.1131 1.42 1.42
15 -9.6879 1.42 0.965

BondAngle Coeffs

1 2.6868 20.4033 1.53 1.42
2 8.016 8.016 1.53 1.53
3 8.016 8.016 1.53 1.53
4 20.754 11.421 1.53 1.101
5 20.754 11.421 1.53 1.101
6 6.0876 16.5702 1.53 1.457
7 0 0 1.457 1.42
8 6.0876 16.5702 1.53 1.457
9 2.6868 20.4033 1.53 1.42
10 8.016 8.016 1.53 1.53
11 8.016 8.016 1.53 1.53
12 -7.2229 -7.2229 1.457 1.457
13 31.8096 20.5799 1.457 1.006
14 -2.8112 -2.8112 1.42 1.42
15 28.58 18.9277 1.42 0.965

Dihedral Coeffs # class2

1 -0.5203 0 -0.3028 0 -0.345 0
2 0.7137 0 0.266 0 -0.2545 0
3 -0.1435 0 0.253 0 -0.0905 0
4 0 0 0.0514 0 -0.143 0
5 0 0 0.0316 0 -0.1681 0
6 0 0 0.0514 0 -0.143 0
7 0 0 0.0316 0 -0.1681 0
8 -0.1432 0 0.0617 0 -0.1083 0
9 0.1764 0 0.1766 0 -0.5206 0
10 -0.2428 0 0.4065 0 -0.3079 0
11 -0.1406 0 0.4168 0 0.015 0
12 -1.1506 0 -0.6344 0 -0.1845 0
13 0 0 0 0 0.05 180
14 -0.1406 0 0.4168 0 0.015 0
15 0 0 0 0 0.05 180
16 -1.1506 0 -0.6344 0 -0.1845 0
17 0.1764 0 0.1766 0 -0.5206 0
18 0.7137 0 0.266 0 -0.2545 0
19 0 0 0.0514 0 -0.143 0
20 0 0 0.0316 0 -0.1681 0
21 0 0 0.0514 0 -0.143 0
22 0 0 0.0514 0 -0.143 0
23 0 0 0.0316 0 -0.1681 0
24 0 0 0.0514 0 -0.143 0
25 -0.6732 0 -0.4778 0 -0.167 0

AngleAngleTorsion Coeffs

1 0 111.27 104.5
2 0 112.67 111.27
3 0 110.77 111.27
4 0 112.67 112.67
5 0 112.67 110.77
6 0 112.67 112.67
7 0 112.67 110.77
8 0 110.77 110.77
9 0 112.67 111.91
10 0 110.77 111.91
11 0 111.91 112.444
12 0 111.91 110.954
13 0 112.444 109.5
14 0 111.91 112.444
15 0 110.954 109.5
16 0 111.91 110.954
17 0 112.67 111.91
18 0 112.67 111.27
19 0 112.67 112.67
20 0 112.67 110.77
21 0 112.67 112.67
22 0 112.67 112.67
23 0 112.67 110.77
24 0 112.67 112.67
25 0 111.27 105.8

EndBondTorsion Coeffs

1 -0.2456 1.0517 -0.7795 0.4741 1.2635 0.5576 1.53 1.42
2 -0.319 0.4411 -0.7174 1.1538 0.8409 -0.9138 1.53 1.42
3 0.9681 0.9551 0.0436 0.5903 0.6669 0.8584 1.101 1.42
4 -0.0732 0 0 -0.0732 0 0 1.53 1.53
5 0.2486 0.2422 -0.0925 0.0814 0.0591 0.2219 1.53 1.101
6 -0.0732 0 0 -0.0732 0 0 1.53 1.53
7 0.2486 0.2422 -0.0925 0.0814 0.0591 0.2219 1.53 1.101
8 0.213 0.312 0.0777 0.213 0.312 0.0777 1.101 1.101
9 0.1032 0.5896 -0.4836 0.0579 -0.0043 -0.1906 1.53 1.457
10 0.196 0.7056 0.112 0.1022 0.209 0.6433 1.101 1.457
11 0.0997 -0.0046 -0.2657 -0.0128 -0.0495 -0.1079 1.53 1.457
12 -0.9466 0.9356 -0.5542 0.057 0.0625 0.4112 1.53 1.006
13 0 0 0 0 0 0 1.457 1.42
14 0.0997 -0.0046 -0.2657 -0.0128 -0.0495 -0.1079 1.53 1.457
15 0 0 0 0 0 0 1.006 1.42
16 -0.9466 0.9356 -0.5542 0.057 0.0625 0.4112 1.53 1.006
17 0.1032 0.5896 -0.4836 0.0579 -0.0043 -0.1906 1.53 1.457
18 -0.319 0.4411 -0.7174 1.1538 0.8409 -0.9138 1.53 1.42
19 -0.0732 0 0 -0.0732 0 0 1.53 1.53
20 0.2486 0.2422 -0.0925 0.0814 0.0591 0.2219 1.53 1.101
21 -0.0732 0 0 -0.0732 0 0 1.53 1.53
22 -0.0732 0 0 -0.0732 0 0 1.53 1.53
23 0.2486 0.2422 -0.0925 0.0814 0.0591 0.2219 1.53 1.101
24 -0.0732 0 0 -0.0732 0 0 1.53 1.53
25 -0.58 0.9004 0 0 0.5343 0.9025 1.53 0.965

MiddleBondTorsion Coeffs

1 -5.9288 -2.7007 -0.3175 1.42
2 -21.8842 -7.6764 -0.6868 1.53
3 -16.7975 -1.2296 -0.275 1.53
4 -17.787 -7.1877 0 1.53
5 -14.879 -3.6581 -0.3138 1.53
6 -17.787 -7.1877 0 1.53
7 -14.879 -3.6581 -0.3138 1.53
8 -14.261 -0.5322 -0.4864 1.53
9 -15.4174 -7.3055 -1.0749 1.53
10 -10.4959 -0.7647 -0.0545 1.53
11 -8.0036 -7.7321 -3.064 1.457
12 -2.2208 0.5479 -0.3527 1.457
13 0 0 0 1.457
14 -8.0036 -7.7321 -3.064 1.457
15 0 0 0 1.457
16 -2.2208 0.5479 -0.3527 1.457
17 -15.4174 -7.3055 -1.0749 1.53
18 -21.8842 -7.6764 -0.6868 1.53
19 -17.787 -7.1877 0 1.53
20 -14.879 -3.6581 -0.3138 1.53
21 -17.787 -7.1877 0 1.53
22 -17.787 -7.1877 0 1.53
23 -14.879 -3.6581 -0.3138 1.53
24 -17.787 -7.1877 0 1.53
25 1.2472 0 0.7485 1.42

BondBond13 Coeffs

1 0 1.53 1.42
2 0 1.53 1.42
3 0 1.101 1.42
4 0 1.53 1.53
5 0 1.53 1.101
6 0 1.53 1.53
7 0 1.53 1.101
8 0 1.101 1.101
9 0 1.53 1.457
10 0 1.101 1.457
11 0 1.53 1.457
12 0 1.53 1.006
13 0 1.457 1.42
14 0 1.53 1.457
15 0 1.006 1.42
16 0 1.53 1.006
17 0 1.53 1.457
18 0 1.53 1.42
19 0 1.53 1.53
20 0 1.53 1.101
21 0 1.53 1.53
22 0 1.53 1.53
23 0 1.53 1.101
24 0 1.53 1.53
25 0 1.53 0.965

AngleTorsion Coeffs

1 -2.7466 1.4877 -0.8955 0.5676 0.945 0.0703 111.27 104.5
2 0.5623 -0.3041 -0.4015 0.9672 -0.7566 -1.2331 112.67 111.27
3 2.3668 2.492 -1.0122 -0.1892 0.4918 0.7273 110.77 111.27
4 0.3886 -0.3139 0.1389 0.3886 -0.3139 0.1389 112.67 112.67
5 -0.2454 0 -0.1136 0.3113 0.4516 -0.1988 112.67 110.77
6 0.3886 -0.3139 0.1389 0.3886 -0.3139 0.1389 112.67 112.67
7 -0.2454 0 -0.1136 0.3113 0.4516 -0.1988 112.67 110.77
8 -0.8085 0.5569 -0.2466 -0.8085 0.5569 -0.2466 110.77 110.77
9 -1.9225 -1.345 0.221 2.0125 0.944 -2.7612 112.67 111.91
10 0.5111 1.6328 -1.0155 -1.1075 0.282 0.8318 110.77 111.91
11 -2.7883 1.5193 1.4796 1.2031 1.3645 -0.7071 111.91 112.444
12 -3.343 4.4558 -0.0346 0.2873 -0.8072 -0.096 111.91 110.954
13 0 0 0 0 0 0 112.444 109.5
14 -2.7883 1.5193 1.4796 1.2031 1.3645 -0.7071 111.91 112.444
15 0 0 0 0 0 0 110.954 109.5
16 -3.343 4.4558 -0.0346 0.2873 -0.8072 -0.096 111.91 110.954
17 -1.9225 -1.345 0.221 2.0125 0.944 -2.7612 112.67 111.91
18 0.5623 -0.3041 -0.4015 0.9672 -0.7566 -1.2331 112.67 111.27
19 0.3886 -0.3139 0.1389 0.3886 -0.3139 0.1389 112.67 112.67
20 -0.2454 0 -0.1136 0.3113 0.4516 -0.1988 112.67 110.77
21 0.3886 -0.3139 0.1389 0.3886 -0.3139 0.1389 112.67 112.67
22 0.3886 -0.3139 0.1389 0.3886 -0.3139 0.1389 112.67 112.67
23 -0.2454 0 -0.1136 0.3113 0.4516 -0.1988 112.67 110.77
24 0.3886 -0.3139 0.1389 0.3886 -0.3139 0.1389 112.67 112.67
25 -3.5903 2.5225 0.4888 0.8726 -0.3577 0.3888 111.27 105.8

Improper Coeffs # class2

1 0 0
2 0 0
3 0 0
4 0 0
5 0 0
6 0 0

AngleAngle Coeffs

1 -0.833 -0.833 -3.5744 112.67 111.27 111.27
2 -1.3199 -1.3199 0.1184 112.67 110.77 110.77
3 5.9412 0 0 111.91 112.67 111.91
4 -0.1729 -0.1729 -0.1729 112.67 112.67 112.67
5 -1.3199 -1.3199 0.1184 112.67 110.77 110.77
6 -10.1289 -10.1289 -1.6152 112.444 110.954 110.954

Atoms # full

2855 2 3 -1.3300000000000001e-01 1.5794120005256437e+01 4.4374575433554853e+00 1.9203509242565833e+00 0 0 0
1009 2 4 0.0000000000000000e+00 2.8146416110442236e+00 1.1468382062986789e+01 7.4948198298911795e+00 0 1 1
1010 2 1 -5.2999999999999999e-02 3.2308859400811687e+00 1.1461550415264904e+01 8.9699397848920590e+00 0 1 1
1011 2 1 -5.2999999999999999e-02 1.4477719389481685e+00 1.0795062548563907e+01 7.3197407338557463e+00 0 1 1
1013 2 1 -5.2999999999999999e-02 1.3995525855942748e+00 9.4090794019633517e+00 7.9467388842428193e+00 0 1 1
2603 2 2 5.2999999999999999e-02 5.5446001452406612e+00 3.9116590384378731e+00 1.8416585985474729e-01 0 0 1
1016 3 1 -5.2999999999999999e-02 1.1012865898830779e+00 1.2105259743978200e+01 1.2350973372480376e+00 0 1 1
1017 3 1 -5.2999999999999999e-02 2.0717014270083114e-01 1.0621134837508922e+01 3.1945930025285962e+00 0 1 1
1018 3 1 -5.2999999999999999e-02 2.2798256793975900e+00 1.2311752218733478e+01 2.1818117066479634e+00 0 1 1
1019 3 1 -5.2999999999999999e-02 1.5957387233410816e+00 1.0002474314043335e+01 3.3044173804645482e+00 0 1 1
1020 3 4 8.2699999999999996e-02 2.7158297699461040e+00 1.1000697909381971e+01 2.8718283951443517e+00 0 1 1
1021 3 4 2.1570000000000000e-01 5.1156971026467959e+00 1.1537637201030480e+01 2.8358431291817099e+00 0 1 1
1022 3 4 0.0000000000000000e+00 5.5975792946402709e+00 1.0793369074050938e+01 1.5872519915110477e+00 0 1 1
1023 3 1 -5.2999999999999999e-02 6.7917659796468426e+00 1.1457899882492544e+01 9.0114884524652494e-01 0 1 1
1024 3 1 -5.2999999999999999e-02 4.5327073240009064e+00 1.0374685313748158e+01 5.5880792501275478e-01 0 1 1
1483 2 4 1.3300000000000001e-01 6.0657458844555734e+00 7.7031385333344851e+00 7.2698033603324266e+00 0 0 1
1484 2 1 -5.2999999999999999e-02 6.1933770802403423e+00 6.2130584255603969e+00 7.5026778720684462e+00 0 0 1
1485 2 1 -5.2999999999999999e-02 5.1353636275659387e+00 7.9805952073912341e+00 6.1093095526971259e+00 0 0 1
1486 2 1 -5.2999999999999999e-02 4.8345583561249201e+00 5.6376384746231150e+00 7.8813280500153837e+00 0 0 1
1487 2 1 -5.2999999999999999e-02 3.7384834895292585e+00 7.5912369229274823e+00 6.5451910661404105e+00 0 0 1
1488 2 4 8.2699999999999996e-02 3.6261046128514898e+00 6.1458159549603879e+00 7.0632349788900877e+00 0 0 1
1489 2 4 2.1570000000000000e-01 1.1081666077843741e+00 5.7870061783528088e+00 6.9707479801628800e+00 0 0 1
1490 2 4 0.0000000000000000e+00 1.1989750164275141e+00 5.5080356015299126e+00 5.4937428815937999e+00 0 0 1
1491 2 1 -5.2999999999999999e-02 1.0996162163891792e+00 6.7244339864870177e+00 4.5611373873260170e+00 0 0 1
1492 2 1 -5.2999999999999999e-02 2.1227023967598515e+00 4.3843841357737174e+00 4.9882365107903412e+00 0 0 1
1493 2 1 -5.2999999999999999e-02 8.0168648157669242e-01 6.3714724627865165e+00 3.0793241527134509e+00 0 0 1
1494 2 1 -5.2999999999999999e-02 2.4584159486760981e+00 4.4321921442052110e+00 3.4667097637872457e+00 0 0 1
1495 2 4 0.0000000000000000e+00 1.4385223696815157e+00 5.0890882605388690e+00 2.5219425517740799e+00 0 0 1
1496 2 4 2.1570000000000000e-01 1.8127725189027075e+00 5.3645245057907083e+00 1.0733754503781259e+00 0 0 1
1497 2 4 8.2699999999999996e-02 4.2725394224842201e+00 5.3778051879450564e+00 1.1923954726404988e+00 0 0 1
1498 2 1 -5.2999999999999999e-02 4.2697147000810078e+00 6.8573316549920103e+00 1.5732020538081823e+00 0 0 1
1499 2 1 -5.2999999999999999e-02 5.5210761707296765e+00 4.9934908090788843e+00 3.9406750742974750e-01 0 0 1
1500 2 1 -5.2999999999999999e-02 5.5276278965816301e+00 7.2217370705851813e+00 2.3373010094603885e+00 0 0 1
1501 2 1 -5.2999999999999999e-02 6.8248289663239499e+00 5.4517377084603673e+00 1.0375102572197807e+00 0 0 1
1502 2 4 0.0000000000000000e+00 6.7996598225620497e+00 6.8928602352983477e+00 1.5565750632029658e+00 0 0 1
1503 2 4 0.0000000000000000e+00 8.1141409587121647e+00 7.3251230068144686e+00 2.1646627127928495e+00 0 0 1
1504 2 1 -5.2999999999999999e-02 8.8905698256919372e+00 8.2850822106902253e+00 1.2609586788183149e+00 0 0 1
1505 2 1 -5.2999999999999999e-02 8.0985166892502924e+00 7.7271415970549242e+00 3.6452014003226330e+00 0 0 1
1530 2 1 -5.2999999999999999e-02 7.9110003282201067e+00 1.2034533847105505e+01 8.0451091459312618e+00 0 0 1
1532 2 1 -5.2999999999999999e-02 8.2000970120187677e+00 1.0607106726779167e+01 7.6143222973365630e+00 0 0 1
1533 2 1 -5.2999999999999999e-02 6.3376364840032124e+00 9.7954880593233931e+00 9.1980136837832269e+00 0 0 1
1534 2 4 1.3300000000000001e-01 6.9879691726078956e+00 9.7104298438835368e+00 7.7616951236889768e+00 0 0 1
2262 2 2 5.2999999999999999e-02 4.2336271948576325e+00 1.1892009569441088e+01 9.1163767038083918e+00 0 1 1
2263 2 2 5.2999999999999999e-02 1.1469497836393423e+00 1.0739662771520612e+01 6.2617628059384103e+00 0 1 1
2265 2 2 5.2999999999999999e-02 4.0281323707085570e-01 8.9534602819326796e+00 7.8287548524018256e+00 0 1 1
2270 3 2 5.2999999999999999e-02 1.7944510811020815e+00 9.5986636797743330e+00 4.3090249257597497e+00 0 1 1
2271 3 6 2.4870000000000000e-01 3.9815693790198012e+00 1.1175064680122206e+01 4.4634301956380904e+00 0 1 1
2272 3 2 5.2999999999999999e-02 7.5678354593935753e+00 1.1751598685929480e+01 1.6277552522273073e+00 0 1 1
2273 3 2 5.2999999999999999e-02 3.8132068550224649e+00 9.6744533947684950e+00 1.0110567389258174e+00 0 1 1
2592 2 2 5.2999999999999999e-02 6.9322356697211127e+00 6.0284298890736361e+00 8.2994548998718845e+00 0 0 1
2593 2 2 5.2999999999999999e-02 5.1769470914655908e+00 9.0452590345161408e+00 5.8326469427718912e+00 0 0 1
2594 2 2 5.2999999999999999e-02 4.8512810048179489e+00 4.5365233748308258e+00 7.9316370121534563e+00 0 0 1
2595 2 2 5.2999999999999999e-02 3.0074154939181597e+00 7.7981301022883081e+00 5.7517842904273557e+00 0 0 1
2596 2 6 2.4870000000000000e-01 2.2983227568069009e+00 6.2375498265990785e+00 8.6045730266246583e+00 0 0 1
2597 2 2 5.2999999999999999e-02 3.9933295787425971e-01 7.4807936366424723e+00 4.9492951005315087e+00 0 0 1
2598 2 2 5.2999999999999999e-02 1.7803325843428688e+00 3.3960046942126394e+00 5.3288461172462380e+00 0 0 1
2935 2 5 -2.6600000000000001e-01 1.1158992635893675e+01 9.9080635869407399e+00 3.8175817970957722e+00 0 0 1
2600 2 2 5.2999999999999999e-02 2.7886969370304389e+00 3.4502870076082384e+00 3.0959409464154728e+00 0 0 1
2602 2 2 5.2999999999999999e-02 3.3858201353245372e+00 7.1158970476721954e+00 2.1753413669845219e+00 0 0 1
2604 2 2 5.2999999999999999e-02 5.5140717850221836e+00 8.2799903030519690e+00 2.6433717413638864e+00 0 0 1
2605 2 2 5.2999999999999999e-02 7.6706344912452611e+00 5.3028878794802754e+00 3.4633846834181675e-01 0 0 1
2606 2 2 5.2999999999999999e-02 9.0486674290426112e+00 7.8458311910568561e+00 2.6352214408557961e-01 0 0 1
2607 2 2 5.2999999999999999e-02 7.7479838215077352e+00 6.8930913331467893e+00 4.2752577818643669e+00 0 0 1
2626 2 2 5.2999999999999999e-02 8.5717302128574193e+00 1.0569159312795437e+01 6.5774772476434755e+00 0 0 1
2725 3 7 -4.1410000000000002e-01 4.0294070990798847e+00 1.0852103916501571e+01 3.5094111541310538e+00 0 1 1
2761 2 7 -4.1410000000000002e-01 2.3822329119376344e+00 5.7641795289255864e+00 7.7178637236681862e+00 0 0 1
2762 2 7 -4.1410000000000002e-01 3.0541643433949037e+00 4.7879176366011587e+00 6.0132389976355782e-01 0 0 1
2885 3 3 -1.3300000000000001e-01 6.1479589997321495e+00 1.1702295613084647e+01 3.7952534260716884e+00 0 1 1
2938 2 5 -2.6600000000000001e-01 7.2928381706674879e+00 8.4009776370156306e+00 7.2963904842200877e+00 0 0 1
2939 2 3 -1.3300000000000001e-01 1.9093542461765708e-01 4.9123168908380128e+00 7.6129661435396621e+00 0 0 1
2940 2 3 -1.3300000000000001e-01 7.6948667521990133e-01 5.0860376792490785e+00 1.4959463990984187e-01 0 0 1
2705 2 7 -4.1410000000000002e-01 1.6142001997996712e+01 6.7132974956125508e+00 2.0576091571595261e+00 0 0 0
755 2 4 1.3300000000000001e-01 1.4944994691083529e+01 1.0478084055347161e+01 9.1789400366412296e-02 0 0 0
756 2 1 -5.2999999999999999e-02 1.5508659213710862e+01 1.0434353499698251e+01 1.5225448099161840e+00 0 0 0
758 2 1 -5.2999999999999999e-02 1.5431739988582025e+01 9.0882326402321212e+00 2.2194498532048375e+00 0 0 0
759 2 1 -5.2999999999999999e-02 1.5093957330302542e+01 7.9277568915833792e+00 2.4357123793304042e-02 0 0 0
760 2 4 8.2699999999999996e-02 1.5905059802050237e+01 7.9586435625339638e+00 1.3122282995114907e+00 0 0 0
761 2 4 2.1570000000000000e-01 1.6408256143614164e+01 5.5323761040355750e+00 1.2592642207612028e+00 0 0 0
762 2 4 0.0000000000000000e+00 1.7904677998701690e+01 5.2964504603082370e+00 1.0196848963199991e+00 0 0 0
764 2 1 -5.2999999999999999e-02 1.8164568939853048e+01 3.9563809518120268e+00 2.9880370811033813e-01 0 0 0
1457 2 4 1.3300000000000001e-01 1.1236970003444574e+01 1.1302993265409439e+01 3.5558808130801953e+00 0 0 1
1458 2 1 -5.2999999999999999e-02 1.1760886271489232e+01 1.1723444603000505e+01 2.1858838931920159e+00 0 0 1
1459 2 1 -5.2999999999999999e-02 1.0095217646763102e+01 1.2180102487313169e+01 4.0597798213487613e+00 0 0 1
1506 2 1 -5.2999999999999999e-02 1.0200038922106703e+01 8.7685621467364108e+00 1.8533778414226492e+00 0 0 1
1507 2 1 -5.2999999999999999e-02 9.4251800904153704e+00 8.2658814074445441e+00 4.1557651465651455e+00 0 0 1
1508 2 4 1.3300000000000001e-01 9.9964866207704937e+00 9.3356942148236790e+00 3.2458997193183583e+00 0 0 1
1549 3 4 8.2699999999999996e-02 1.7787421105052388e+01 7.5692010553683158e+00 5.4086943739105582e+00 0 0 1
1550 3 1 -5.2999999999999999e-02 1.6611707985595995e+01 6.6559261880916791e+00 5.7282354698803504e+00 0 0 1
1551 3 1 -5.2999999999999999e-02 1.7886571366165658e+01 8.7604669349434854e+00 6.3423907110498128e+00 0 0 1
1552 3 1 -5.2999999999999999e-02 1.5292447221537316e+01 7.4210372524110984e+00 5.7175793904630678e+00 0 0 1
1553 3 1 -5.2999999999999999e-02 1.6617761994107806e+01 9.5876820886187186e+00 6.2641636966893373e+00 0 0 1
1554 3 4 0.0000000000000000e+00 1.5313276797912934e+01 8.7861791487164886e+00 6.4208762491264988e+00 0 0 1
1555 3 4 0.0000000000000000e+00 1.4026296044033851e+01 9.5793667906071498e+00 6.2590882856456664e+00 0 0 1
1556 3 1 -5.2999999999999999e-02 1.3083656178090351e+01 9.4505225501044787e+00 7.4666339089262452e+00 0 0 1
1557 3 1 -5.2999999999999999e-02 1.4233040831454769e+01 1.1016165364753318e+01 5.7602590571283194e+00 0 0 1
1558 3 1 -5.2999999999999999e-02 1.1906470619752403e+01 1.0417301069072192e+01 7.4798987519724118e+00 0 0 1
1559 3 1 -5.2999999999999999e-02 1.3006420212532705e+01 1.1903418539190541e+01 5.8330871109662166e+00 0 0 1
1560 3 4 1.3300000000000001e-01 1.2352138349268484e+01 1.1838217986689681e+01 7.2008657257150785e+00 0 0 1
2050 2 2 5.2999999999999999e-02 1.5081492600747143e+01 8.1763827549951795e+00 8.9046659692925640e+00 0 0 0
2642 3 2 5.2999999999999999e-02 1.6647999323172293e+01 1.0420387428074360e+01 6.9865359292906462e+00 0 0 1
2086 2 2 5.2999999999999999e-02 1.5048217729681031e+01 1.1226690560343879e+01 2.1344709812301423e+00 0 0 0
2088 2 2 5.2999999999999999e-02 1.6024911015574268e+01 9.1188390550238516e+00 3.1466378009105567e+00 0 0 0
2090 2 6 2.4870000000000000e-01 1.5370171568769980e+01 6.5334595093785657e+00 2.6790322752564224e+00 0 0 0
2644 3 2 5.2999999999999999e-02 1.4666396881011343e+01 1.1019696180171124e+01 4.7488898932898156e+00 0 0 1
2092 2 2 5.2999999999999999e-02 1.8201807060807436e+01 3.1074455663152256e+00 9.9948309324971074e-01 0 0 0
2645 3 2 5.2999999999999999e-02 1.1370650823471525e+01 1.0371061272692700e+01 8.4409084394661722e+00 0 0 1
2574 2 2 5.2999999999999999e-02 1.2612239045446128e+01 1.1079635956855476e+01 1.9092786354368423e+00 0 0 1
2575 2 2 5.2999999999999999e-02 9.7849725146556068e+00 1.1847305566466840e+01 5.0619027385542257e+00 0 0 1
2608 2 2 5.2999999999999999e-02 1.0661142226622728e+01 9.5192096359772052e+00 1.1959145284329094e+00 0 0 1
2609 2 2 5.2999999999999999e-02 9.3217612022448932e+00 8.6558723446663972e+00 5.1802328324782936e+00 0 0 1
2636 3 2 5.2999999999999999e-02 1.8251518361651154e+01 8.8361329797826791e+00 2.8739129543271931e+00 0 0 1
2643 3 2 5.2999999999999999e-02 1.2744090302468663e+01 8.4085177612960909e+00 7.5882539026648903e+00 0 0 1
2639 3 2 5.2999999999999999e-02 1.6570698786546266e+01 5.8099736525707391e+00 5.0221239221563261e+00 0 0 1
2641 3 2 5.2999999999999999e-02 1.4472723314542195e+01 6.7993205255869489e+00 6.1139642677836346e+00 0 0 1
2091 2 2 5.2999999999999999e-02 1.8365686781306692e+01 7.4390642678933725e+00 6.7914200545177816e-01 0 0 0
496 3 1 -5.2999999999999999e-02 3.7081188843126740e+00 4.5478941065876066e-01 1.3609571112443220e+01 1 2 0
498 3 1 -5.2999999999999999e-02 4.2035961332167302e+00 1.5557524049912088e+00 1.2687424221067275e+01 1 2 0
2231 2 2 5.2999999999999999e-02 1.0886978225389786e-01 9.9138555425508166e+00 1.1331087803331162e+01 0 1 1
500 3 4 8.2699999999999996e-02 5.0367478959518461e+00 9.9960381939754184e-01 1.1528121684665562e+01 1 2 0
501 3 4 2.1570000000000000e-01 6.3694724157287794e+00 3.0281251760139645e+00 1.1312159679685053e+01 1 2 0
502 3 4 0.0000000000000000e+00 7.6718407569824150e+00 2.6978621035507726e+00 1.2039009382954173e+01 1 2 0
503 3 1 -5.2999999999999999e-02 7.7881148828549405e+00 3.6118816871064179e+00 1.3274541045997706e+01 1 2 0
504 3 1 -5.2999999999999999e-02 8.0405291702307657e+00 1.2330843542683971e+00 1.2323195475223315e+01 1 2 0
505 3 1 -5.2999999999999999e-02 8.8388597917902896e+00 3.2350808194255971e+00 1.4313550451193670e+01 1 2 0
506 3 1 -5.2999999999999999e-02 9.1610824369124497e+00 1.0137833748104452e+00 1.3334971456975632e+01 1 2 0
507 3 4 0.0000000000000000e+00 8.8535984792901576e+00 1.7438565861991895e+00 1.4637750661247731e+01 1 2 0
963 2 4 1.3300000000000001e-01 4.6288659507965779e-01 7.9553553347900285e+00 1.0418873080449254e+01 0 1 1
1012 2 1 -5.2999999999999999e-02 3.1707498278650466e+00 1.0084520760944917e+01 9.5972828052350145e+00 0 1 1
1014 2 4 1.3300000000000001e-01 1.8165905639860001e+00 9.4402494314712833e+00 9.4109384789383093e+00 0 1 1
1048 1 4 0.0000000000000000e+00 1.1392315449737993e+00 1.0844879138831093e+01 1.7520227162212329e+01 1 0 1
1049 1 1 -5.2999999999999999e-02 7.0359053791176485e-01 9.3617004147584968e+00 1.7342987408086586e+01 1 0 1
1050 1 1 -5.2999999999999999e-02 3.4135045581961243e-01 1.1796236757661310e+01 1.6615111871929003e+01 1 0 1
1057 1 1 -5.2999999999999999e-02 7.4387558602488246e-01 7.4876166406245099e+00 1.4406684700113880e+01 1 0 1
1058 1 1 -5.2999999999999999e-02 5.8330151409469988e-01 4.7095581050974893e+00 1.5410120450189455e+01 1 0 1
1059 1 1 -5.2999999999999999e-02 2.0133749184120582e+00 6.7905292745402255e+00 1.4892653523095255e+01 1 0 1
1060 1 4 0.0000000000000000e+00 1.9676269032324949e+00 5.2556383521890293e+00 1.5024358461943898e+01 1 0 1
1061 1 4 0.0000000000000000e+00 3.1230276710733595e+00 4.6395091459948024e+00 1.5849214584323182e+01 1 0 1
1062 1 1 -5.2999999999999999e-02 4.5496663173209235e+00 4.9465688406350834e+00 1.5371563593259134e+01 1 0 1
1063 1 1 -5.2999999999999999e-02 2.9641105920569024e+00 3.1527339231775211e+00 1.6223917871540216e+01 1 0 1
1064 1 1 -5.2999999999999999e-02 5.6333434537982852e+00 4.3766211730471847e+00 1.6280479382406416e+01 1 0 1
1065 1 1 -5.2999999999999999e-02 4.0975410926872078e+00 2.5794146855431817e+00 1.7071837159830753e+01 1 0 1
1066 1 1 -5.2999999999999999e-02 5.4655856995545786e+00 2.8815230696071605e+00 1.6484286474905122e+01 1 0 1
1529 2 4 0.0000000000000000e+00 7.2039202202033801e+00 1.2173709285784005e+01 9.4497207273693942e+00 0 0 1
1531 2 1 -5.2999999999999999e-02 6.9481684779059769e+00 1.0829087811749686e+01 1.0138965653586897e+01 0 0 1
1905 3 2 5.2999999999999999e-02 3.0662063960182717e+00 8.6379808730639673e-01 1.4407318120033931e+01 1 2 0
1907 3 2 5.2999999999999999e-02 4.7782430735892687e+00 2.2983613390508095e+00 1.3266924437172221e+01 1 2 0
1909 3 6 2.4870000000000000e-01 5.0517636320020713e+00 2.2953503556930457e+00 9.9535115406308421e+00 1 2 0
1910 3 2 5.2999999999999999e-02 7.8680304026516987e+00 4.6719782806891059e+00 1.2985938228239480e+01 1 2 0
1911 3 2 5.2999999999999999e-02 8.2276394865204789e+00 6.8098464074747234e-01 1.1386940028282419e+01 1 2 0
1912 3 2 5.2999999999999999e-02 8.7216162696743780e+00 3.8422588251615468e+00 1.5224307644019582e+01 1 2 0
1916 3 2 5.2999999999999999e-02 6.8784820204117585e+00 1.9331986849339650e-01 1.5971490565052145e+01 1 2 0
2059 2 6 2.4870000000000000e-01 9.2099764771184791e+00 1.0112380689444802e+01 1.0606196989933768e+01 0 0 0
2060 2 2 5.2999999999999999e-02 9.2480447763879692e+00 9.0423229826583320e+00 1.3774057016282443e+01 0 0 0
2230 2 2 5.2999999999999999e-02 6.7894457382211770e-01 5.8286335100218132e+00 1.0052826959284053e+01 0 1 1
2264 2 2 5.2999999999999999e-02 3.4177824033916200e+00 1.0127915827301655e+01 1.0669706057872563e+01 0 1 1
2296 1 2 5.2999999999999999e-02 8.5470570178133698e-01 8.5790270217006288e+00 1.4512066037068257e+01 1 0 1
2297 1 2 5.2999999999999999e-02 4.8143110372814196e-01 3.6540283997838481e+00 1.5110336785942891e+01 1 0 1
2298 1 2 5.2999999999999999e-02 2.8873901493496974e+00 7.1154013566398913e+00 1.4303627361092460e+01 1 0 1
2299 1 2 5.2999999999999999e-02 4.6990699045833306e+00 6.0293027588323698e+00 1.5231180122222597e+01 1 0 1
2300 1 2 5.2999999999999999e-02 2.0049951420837546e+00 2.9694213864727117e+00 1.6736757281111377e+01 1 0 1
2301 1 2 5.2999999999999999e-02 6.6337620822889836e+00 4.6097793495010304e+00 1.5884307609365990e+01 1 0 1
2302 1 2 5.2999999999999999e-02 3.9625532373700367e+00 1.4944283767778546e+00 1.7224798344606238e+01 1 0 1
2303 1 2 5.2999999999999999e-02 6.2651457023412886e+00 2.4679541884499923e+00 1.7121180642980399e+01 1 0 1
2290 1 2 5.2999999999999999e-02 1.1453558617201991e+00 8.7023001483678861e+00 1.8107572507285919e+01 1 0 1
2625 2 2 5.2999999999999999e-02 6.3117038876289033e+00 1.0954840205523880e+01 1.1030960236163613e+01 0 0 1
2627 2 2 5.2999999999999999e-02 6.2994707723256127e+00 8.8031090539085035e+00 9.6651998287336873e+00 0 0 1
2685 3 7 -4.1410000000000002e-01 5.7123594582318420e+00 1.9389473786409839e+00 1.0624361228029139e+01 1 2 0
2825 3 3 -1.3300000000000001e-01 6.4722607610583198e+00 4.1518557777483904e+00 1.0452405764774364e+01 1 2 0
2850 2 3 -1.3300000000000001e-01 8.5828710082311197e+00 7.9042285507912329e+00 1.0560724398032596e+01 0 0 0
2878 2 5 -2.6600000000000001e-01 1.8140489721821713e+00 8.1902300656559550e+00 1.0071696344039966e+01 0 1 1
508 3 4 2.1570000000000000e-01 9.6141566883780936e+00 1.4161227231803175e+00 1.5957137109245267e+01 1 2 0
703 2 4 1.3300000000000001e-01 1.6962468272864790e+01 8.0777348846714361e+00 9.9766632618403577e+00 0 0 0
704 2 1 -5.2999999999999999e-02 1.5441563892816367e+01 7.9082892393162645e+00 9.9079149424684090e+00 0 0 0
705 2 1 -5.2999999999999999e-02 1.7694722452554050e+01 7.5044348212395136e+00 1.1223751261937542e+01 0 0 0
706 2 1 -5.2999999999999999e-02 1.5050556910303373e+01 6.5013517662719265e+00 1.0282216506813025e+01 0 0 0
707 2 1 -5.2999999999999999e-02 1.6990886885648386e+01 6.2592266104059116e+00 1.1852035128860932e+01 0 0 0
708 2 4 8.2699999999999996e-02 1.5467479947940321e+01 6.2942009151711709e+00 1.1723595754784684e+01 0 0 0
709 2 4 2.1570000000000000e-01 1.4001114654656689e+01 5.4879051314780583e+00 1.3552121361260308e+01 0 0 0
710 2 4 0.0000000000000000e+00 1.2646352429826013e+01 6.0810230342637315e+00 1.3199177992312491e+01 0 0 0
711 2 1 -5.2999999999999999e-02 1.2640226638396960e+01 7.6169586859051872e+00 1.2866089367853327e+01 0 0 0
712 2 1 -5.2999999999999999e-02 1.1774421666096487e+01 5.2332782350799807e+00 1.2246134186037791e+01 0 0 0
713 2 1 -5.2999999999999999e-02 1.2317530738708731e+01 7.8823037942188199e+00 1.1411386581593590e+01 0 0 0
714 2 1 -5.2999999999999999e-02 1.0623952838898946e+01 5.9713159028543652e+00 1.1558386320028955e+01 0 0 0
715 2 4 0.0000000000000000e+00 1.0908572244508999e+01 7.3845131527761456e+00 1.1021418431019503e+01 0 0 0
716 2 4 2.1570000000000000e-01 9.7152040086670546e+00 8.2853582444594345e+00 1.1324436236025404e+01 0 0 0
717 2 4 8.2699999999999996e-02 1.0182180372880755e+01 1.0433342861739783e+01 1.2368171979351988e+01 0 0 0
718 2 1 -5.2999999999999999e-02 9.2384717511452763e+00 1.0120411990406273e+01 1.3537474960883568e+01 0 0 0
719 2 1 -5.2999999999999999e-02 1.0440747204537818e+01 1.1930095890122759e+01 1.2144694287742544e+01 0 0 0
720 2 1 -5.2999999999999999e-02 9.5524013496400855e+00 1.0934483814276039e+01 1.4781291866182865e+01 0 0 0
964 2 1 -5.2999999999999999e-02 2.5337244985445811e-01 6.5036847093931192e+00 1.0804430926670504e+01 0 1 1
752 2 1 -5.2999999999999999e-02 1.6301404843799286e+01 1.1011643459615886e+01 1.0738975272531873e+01 0 0 0
754 2 4 1.3300000000000001e-01 1.7609749973520859e+01 1.0406210340452398e+01 1.0237228411519700e+01 0 0 0
1262 2 4 2.1570000000000000e-01 1.7921433967815460e+01 5.5809558597862079e+00 1.5839591644194975e+01 0 0 0
1337 2 1 -5.2999999999999999e-02 1.7212248884695764e+01 1.1584853970376583e+01 1.5630085986772121e+01 0 0 0
1338 2 1 -5.2999999999999999e-02 1.4850490950980509e+01 1.1821733968892469e+01 1.4711965329137930e+01 0 0 0
1339 2 4 0.0000000000000000e+00 1.5822189052162727e+01 1.0958191423497677e+01 1.5520695621224039e+01 0 0 0
1340 2 4 2.1570000000000000e-01 1.5904148140598481e+01 9.4677256437507591e+00 1.5223547128580732e+01 0 0 0
1341 2 4 8.2699999999999996e-02 1.3802418533085996e+01 9.1290703684162366e+00 1.6590188349365775e+01 0 0 0
1342 2 1 -5.2999999999999999e-02 1.4158137228049899e+01 9.8431332706303643e+00 1.7909947599595682e+01 0 0 0
1343 2 1 -5.2999999999999999e-02 1.2613974645697496e+01 8.1429420789486588e+00 1.6640266781499729e+01 0 0 0
1345 2 1 -5.2999999999999999e-02 1.1564876360542202e+01 8.3839867491462243e+00 1.7725651941155220e+01 0 0 0
2051 2 2 5.2999999999999999e-02 1.7832872019817440e+01 8.2986724844639213e+00 1.1971857410936396e+01 0 0 0
2052 2 2 5.2999999999999999e-02 1.3969287371270365e+01 6.3348076990826359e+00 1.0156293548603658e+01 0 0 0
2053 2 2 5.2999999999999999e-02 1.7306064699410360e+01 6.1294129648530582e+00 1.2897207470141284e+01 0 0 0
2054 2 6 2.4870000000000000e-01 1.5351258871272726e+01 4.3741191372617836e+00 1.2461310201750068e+01 0 0 0
2055 2 2 5.2999999999999999e-02 1.3571469179568416e+01 8.1125451897342824e+00 1.3178604438273320e+01 0 0 0
2056 2 2 5.2999999999999999e-02 1.1422758665616424e+01 4.3163007572259486e+00 1.2747749009867380e+01 0 0 0
2057 2 2 5.2999999999999999e-02 1.2505491960725330e+01 8.9235014880648897e+00 1.1110241303276005e+01 0 0 0
2058 2 2 5.2999999999999999e-02 1.0073970785683164e+01 5.3400301797494576e+00 1.0841872810737778e+01 0 0 0