LAMMPS (22 Jul 2025)
units real
atom_style full
boundary p p p
pair_style lj/class2/coul/long 12.0 12.0
special_bonds  lj 0 0 1 coul 0 0 1
bond_style class2
angle_style class2
dihedral_style class2
improper_style class2
dielectric 1.0
kspace_style ewald 0.001
read_data lammps.data
Reading data file ...
  orthogonal box = (0 0 0) to (36.995 36.995 36.995)
  2 by 4 by 4 MPI processor grid
  reading atoms ...
  2946 atoms
  reading velocities ...
  2946 velocities
  scanning bonds ...
  2 = max bonds/atom
  scanning angles ...
  3 = max angles/atom
  scanning dihedrals ...
  12 = max dihedrals/atom
  scanning impropers ...
  1 = max impropers/atom
  orthogonal box = (0 0 0) to (36.995 36.995 36.995)
  2 by 4 by 4 MPI processor grid
  reading bonds ...
  3183 bonds
  reading angles ...
  5100 angles
  reading dihedrals ...
  7674 dihedrals
  reading impropers ...
  1560 impropers
Finding 1-2 1-3 1-4 neighbors ...
  special bond factors lj:    0        0        1       
  special bond factors coul:  0        0        1       
     3 = max # of 1-2 neighbors
     6 = max # of 1-3 neighbors
     9 = max # of special neighbors
  special bonds CPU = 0.002 seconds
  read_data CPU = 0.084 seconds
pair_modify  mix sixthpower
#element_type C H O C O H N H

reset_timestep 0
min_style cg
minimize 1e-6 1e-6 2000 20000
Ewald initialization ...
  using 12-bit tables for long-range coulomb
  G vector (1/distance) = 0.076845016
  estimated absolute RMS force accuracy = 0.39254659
  estimated relative force accuracy = 0.0011821424
  KSpace vectors: actual max1d max3d = 3 1 13
                  kxmax kymax kzmax  = 1 1 1
Generated 28 of 28 mixed pair_coeff terms from sixthpower/sixthpower mixing rule
Neighbor list info ...
  update: every = 1 steps, delay = 0 steps, check = yes
  max neighbors/atom: 2000, page size: 100000
  master list distance cutoff = 14
  ghost atom cutoff = 14
  binsize = 7, bins = 6 6 6
  1 neighbor lists, perpetual/occasional/extra = 1 0 0
  (1) pair lj/class2/coul/long, perpetual
      attributes: half, newton on
      pair build: half/bin/newton
      stencil: half/bin/3d
      bin: standard
Per MPI rank memory allocation (min/avg/max) = 15.54 | 15.56 | 15.67 Mbytes
   Step          Temp          E_pair         E_mol          TotEng         Press     
         0   0             -1557.1715     -1683.8888     -3241.0603      875.06011    
         4   0             -1555.6633     -1690.9304     -3246.5937      1046.8872    
Loop time of 0.125275 on 32 procs for 4 steps with 2946 atoms

76.1% CPU use with 32 MPI tasks x no OpenMP threads

Minimization stats:
  Stopping criterion = linesearch alpha is zero
  Energy initial, next-to-last, final = 
     -3241.06034231678  -3246.59367008389  -3246.59367008389
  Force two-norm initial, final = 81.9893 58.827141
  Force max component initial, final = 23.309694 11.464426
  Final line search alpha, max atom move = 2.0829797e-12 2.3880166e-11
  Iterations, force evaluations = 4 71

MPI task timing breakdown:
Section |  min time  |  avg time  |  max time  |%varavg| %total
---------------------------------------------------------------
Pair    | 0.0059349  | 0.03011    | 0.046504   |   6.0 | 24.03
Bond    | 0.0023089  | 0.007431   | 0.010946   |   2.4 |  5.93
Kspace  | 0.0019779  | 0.022014   | 0.051177   |   8.4 | 17.57
Neigh   | 0          | 0          | 0          |   0.0 |  0.00
Comm    | 0.053697   | 0.055797   | 0.058919   |   0.6 | 44.54
Output  | 0          | 0          | 0          |   0.0 |  0.00
Modify  | 0          | 0          | 0          |   0.0 |  0.00
Other   |            | 0.009923   |            |       |  7.92

Nlocal:        92.0625 ave         128 max          29 min
Histogram: 1 0 3 3 3 4 3 5 3 7
Nghost:         3668.5 ave        3770 max        3599 min
Histogram: 4 0 7 5 8 2 2 2 1 1
Neighs:        31766.5 ave       47730 max        7370 min
Histogram: 1 1 2 4 3 4 4 4 4 5

Total # of neighbors = 1016529
Ave neighs/atom = 345.05397
Ave special neighs/atom = 5.6232179
Neighbor list builds = 0
Dangerous builds = 0


# ============================================
# Low-temperature equilibration (solid state)
# ============================================

timestep 1.0

velocity all create 300.0 928374 dist gaussian mom yes rot yes

fix EQ all npt temp 300.0 300.0 100.0 iso 1.0 1.0 1000.0

thermo_style custom step temp press pe etotal enthalpy vol density
thermo 1000

run 500000     # 500 ps
Ewald initialization ...
  using 12-bit tables for long-range coulomb
  G vector (1/distance) = 0.076845016
  estimated absolute RMS force accuracy = 0.39254659
  estimated relative force accuracy = 0.0011821424
  KSpace vectors: actual max1d max3d = 3 1 13
                  kxmax kymax kzmax  = 1 1 1
Generated 28 of 28 mixed pair_coeff terms from sixthpower/sixthpower mixing rule
Per MPI rank memory allocation (min/avg/max) = 14.42 | 14.43 | 14.54 Mbytes
   Step          Temp          Press          PotEng         TotEng        Enthalpy        Volume        Density    
         4   300            3424.519      -3246.5937     -613.04799      1915.6943      50632.468      0.79998535   
      1000   298.08196     -364.39174     -1000.6471      1616.0611      1328.1632      54174.392      0.74768227   
      2000   301.51         815.50767     -1024.4707      1622.3305      2233.3378      51373.89       0.78844005   
      3000   304.66169     -749.33742     -1111.2249      1563.2434      1025.3824      49217.177      0.82298976   
      4000   294.14686     -364.5116      -1159.3469      1422.8171      1174.9084      46634.193      0.86857367   
      5000   304.10342      191.00472     -1240.2974      1429.27        1556.0424      45509.778      0.89003363   
      6000   296.30187     -1444.114      -1290.9794      1310.1023      381.14386      44108.157      0.91831615   
      7000   302.17195     -591.52071     -1251.0623      1401.5498      1023.5936      43812.254      0.92451835   
      8000   312.08587      147.77024     -1306.6229      1433.0183      1524.8858      42628.368      0.95019432   
      9000   312.15763      128.46016     -1375.9957      1364.2756      1443.9594      42532.962      0.9523257    
     10000   305.9315       114.71222     -1377.2362      1308.3791      1378.3821      41843.835      0.96800958   
     11000   292.17609      65.206747     -1439.7715      1125.0921      1164.4939      41433.143      0.97760464   
     12000   292.67902     -1543.9837     -1327.5664      1241.7121      313.14121      41237.894      0.98223329   
     13000   295.31663      2325.8528     -1467.6114      1124.8214      2532.4145      41497.22       0.97609509   
     14000   296.88675      386.88692     -1382.6326      1223.5834      1458.5855      41649.696      0.9725217    
     15000   305.23863     -1570.1376     -1362.0223      1317.5106      380.31057      40927.829      0.9896746    
     16000   297.16926      1280.2698     -1365.1259      1243.5701      2006.048       40836.625      0.99188492   
     17000   306.75893      642.55215     -1433.6251      1259.2537      1644.3559      41095.257      0.98564251   
     18000   304.36901      1403.8846     -1410.0614      1261.8376      2093.5796      40623.876      0.99707946   
     19000   296.10903      1089.731      -1402.3161      1197.0727      1834.4541      40105.522      1.0099665    
     20000   302.45837      966.18584     -1432.6533      1222.4732      1784.4597      39883.142      1.0155978    
     21000   298.59544     -281.11514     -1458.2245      1162.9912      999.298        39927.354      1.0144733    
     22000   303.78318     -312.13588     -1478.7778      1187.9785      1006.3152      39906.855      1.0149944    
     23000   300.15729     -939.44964     -1373.4878      1261.4387      722.84681      39310.665      1.0303879    
     24000   291.94144     -675.946       -1465.5443      1097.2594      705.1239       39778.487      1.0182698    
     25000   306.2795       846.61362     -1522.0425      1166.6276      1657.0739      39721.929      1.0197197    
     26000   293.55963      1428.2451     -1432.6965      1144.3125      1963.2582      39316.649      1.030231     
     27000   294.95524     -669.53934     -1434.6661      1154.5943      769.29668      39458.841      1.0265186    
     28000   298.82039     -695.80315     -1433.7728      1189.4177      794.74069      38893.722      1.0414337    
     29000   302.75554     -989.40713     -1584.1867      1073.5484      509.16491      39113.2        1.0355899    
     30000   296.63677      622.28603     -1412.4805      1191.5411      1545.6693      39020.653      1.038046     
     31000   301.17654      995.855       -1477.2024      1166.6715      1737.2332      39285.349      1.0310519    
     32000   300.15823      684.52773     -1528.4492      1106.4855      1499.7209      39389.968      1.0283134    
     33000   295.14932     -1053.0944     -1603.0656      987.89849      387.33833      39103.293      1.0358522    
     34000   301.40542     -684.87583     -1533.6966      1112.1865      723.3414       38930.406      1.0404524    
     35000   308.62231     -932.2589      -1500.9636      1208.273       683.36531      38607.394      1.0491574    
     36000   305.2299      -972.46734     -1630.7182      1048.7381      506.14733      38257.93       1.0587408    
     37000   301.84646      1377.6548     -1596.4383      1053.3165      1824.4374      38380.108      1.0553705    
     38000   296.6396      -1067.8952     -1578.429       1025.6175      428.86309      38316.963      1.0571097    
     39000   301.09028      1157.0856     -1518.3923      1124.7244      1773.551       38449.194      1.0534742    
     40000   296.21896      1259.155      -1603.6101      996.74381      1703.5767      38491.222      1.0523239    
     41000   297.77089      1514.2836     -1516.2263      1097.7512      1945.616       38392.247      1.0550368    
     42000   305.82202      1554.554      -1573.7868      1110.8675      1974.0525      38073.446      1.063871     
     43000   301.03361     -677.94824     -1583.5547      1059.0646      674.00112      38945.731      1.0400429    
     44000   295.36214     -2053.6268     -1578.0111      1014.8212     -148.21666      38832.597      1.043073     
     45000   297.11761     -1446.7152     -1517.3209      1090.9218      278.23379      38518.104      1.0515895    
     46000   306.25832      254.01204     -1570.0736      1118.4107      1259.9613      38210.394      1.060058     
     47000   303.68683      565.44545     -1549.0254      1116.8851      1438.0626      38947.4        1.0399984    
     48000   310.3288      -1540.8463     -1553.5072      1170.7097      315.25277      38068.255      1.064016     
     49000   302.6052       1195.4336     -1502.1032      1154.3122      1822.2515      38312.072      1.0572446    
     50000   297.85302     -297.68392     -1569.7455      1044.953       878.12501      38427.096      1.05408      
     51000   309.66625     -408.78317     -1622.8148      1095.5859      866.54821      38418.285      1.0543217    
     52000   297.70626     -1345.8796     -1534.194       1079.2161      320.06388      38676.461      1.0472838    
     53000   297.09114      564.08739     -1438.6198      1169.3905      1487.5852      38678.587      1.0472263    
     54000   304.28758      1152.6759     -1588.3177      1082.8664      1736.8381      38902.355      1.0412026    
     55000   306.47143     -131.16601     -1576.9369      1113.4181      1039.4932      38645.039      1.0481354    
     56000   294.29791      701.27913     -1614.8961      968.59383      1361.2981      38397.137      1.0549024    
     57000   300.10204     -127.09742     -1541.244       1093.1975      1021.2861      38795.836      1.0440613    
     58000   293.10237      506.70961     -1547.8034      1025.1915      1311.9794      38808.407      1.0437231    
     59000   287.44783     -219.32369     -1526.7137      996.64295      872.912        38682.711      1.0471146    
     60000   294.93062     -938.47218     -1528.5364      1060.5078      532.16876      38602.499      1.0492904    
     61000   305.99373     -247.72624     -1589.7152      1096.4463      957.22785      38534.431      1.0511439    
     62000   298.39283      510.13388     -1489.2265      1130.2107      1418.7214      38779.472      1.0445019    
     63000   301.68737      232.49468     -1619.9387      1028.4195      1159.7054      38719.431      1.0461216    
     64000   301.43155      376.25971     -1581.7458      1064.3668      1275.7972      38530.442      1.0512527    
     65000   295.11676      363.89117     -1570.2457      1020.4325      1224.3481      38424.036      1.0541639    
     66000   301.14584      187.04054     -1559.2173      1084.3872      1190.0403      38732.074      1.0457801    
     67000   300.69789      583.79117     -1569.506       1070.1661      1393.8807      38021.462      1.0653255    
     68000   297.04445     -1152.0669     -1618.1801      989.42035      343.66772      38433.736      1.0538979    
     69000   293.78691      2361.7058     -1552.7404      1026.2638      2350.1977      38438.341      1.0537716    
     70000   297.3889       720.8887      -1591.0843      1019.5399      1426.9676      38753.1        1.0452127    
     71000   310.78243      1139.6275     -1551.3833      1176.8158      1817.8165      38567.343      1.0502469    
     72000   298.4387      -502.54753     -1603.2867      1016.5531      735.0511       38408.595      1.0545877    
     73000   292.99857     -849.6673      -1548.965       1023.1187      541.1583       38894.356      1.0414167    
     74000   298.93077     -469.44034     -1549.8541      1074.3053      812.1411       38292.804      1.0577766    
     75000   294.71323     -892.58747     -1593.9441      993.19169      489.36628      38703.781      1.0465446    
     76000   300.36971     -298.79293     -1481.7891      1155.0021      987.09474      38532.167      1.0512057    
     77000   300.74449      1329.206      -1623.2177      1016.8635      1768.4376      38770.697      1.0447383    
     78000   304.28792      127.1491      -1563.7948      1107.3924      1179.1511      38697.735      1.0467081    
     79000   296.55085      503.67381     -1572.9867      1030.2807      1314.7677      38729.083      1.0458609    
     80000   296.7614       217.95027     -1503.0106      1102.1051      1225.2349      38737.355      1.0456375    
     81000   302.5483      -1296.6788     -1531.0545      1124.8614      395.41375      38573.213      1.0500871    
     82000   294.32987      559.8326      -1653.1595      930.61105      1241.3093      38054.385      1.0644038    
     83000   301.52844      744.42521     -1548.5865      1098.3765      1514.53        38331.568      1.0567069    
     84000   300.73698     -114.43715     -1588.3759      1051.6394      986.98989      38736.645      1.0456567    
     85000   304.79567     -800.60747     -1558.0612      1117.5832      665.83362      38690.31       1.046909     
     86000   300.22382      262.30821     -1525.4869      1110.0236      1255.7413      38091.186      1.0633755    
     87000   297.55024     -638.58829     -1613.475       998.5655       638.17403      38697.032      1.0467271    
     88000   300.156        403.48704     -1575.9068      1059.0083      1283.0925      38080.766      1.0636664    
     89000   304.60747     -275.31456     -1536.4224      1137.5699      984.92476      38017.009      1.0654503    
     90000   296.83993     -899.41669     -1482.4978      1123.3073      619.13181      38436.592      1.0538196    
     91000   298.98344      662.77142     -1519.7661      1104.8557      1475.6655      38362.916      1.0558434    
     92000   308.66872     -495.69275     -1585.7551      1123.8888      846.58772      38358.633      1.0559613    
     93000   291.60174     -356.90869     -1543.6661      1016.1556      815.97936      38457.356      1.0532506    
     94000   299.05181     -1301.6183     -1472.3506      1152.8714      414.93198      38874.174      1.0419574    
     95000   307.97048     -27.655571     -1546.4213      1157.0931      1141.5497      38538.07       1.0510446    
     96000   300.22897     -680.16975     -1588.703       1046.8527      660.7756       38920.723      1.0407112    
     97000   294.21627     -1027.5918     -1538.6624      1044.1109      466.48127      38543.658      1.0508923    
     98000   299.84517     -120.5644      -1580.9962      1051.1904      983.74213      38359.737      1.0559309    
     99000   300.4133      -437.57775     -1636.3302      1000.8436      754.81666      38552.413      1.0506536    
    100000   302.21288      1054.1392     -1577.8708      1075.1006      1664.2195      38320.318      1.0570171    
    101000   297.93253     -1199.7492     -1577.8281      1037.5683      359.97667      38725.915      1.0459464    
    102000   299.66904     -1322.4688     -1522.1848      1108.4555      365.21113      38536.328      1.0510922    
    103000   294.03558      785.28879     -1674.0165      907.17062      1344.2366      38162.93       1.0613764    
    104000   305.45915      333.69232     -1599.5449      1081.9239      1268.406       38319.085      1.0570512    
    105000   295.98024      293.1126      -1563.5862      1034.6721      1199.4165      38538.988      1.0510196    
    106000   302.72385     -299.86314     -1591.51        1065.947       896.73362      38693.299      1.0468281    
    107000   298.14323      33.596066     -1560.3013      1056.9448      1075.6318      38139.682      1.0620234    
    108000   305.97814      838.17354     -1621.3672      1064.6575      1537.0499      38644.974      1.0481371    
    109000   297.46541     -849.39561     -1604.7738      1006.522       535.13151      38053.526      1.0644279    
    110000   300.28167      330.80951     -1536.1105      1099.9078      1286.2796      38630.142      1.0485396    
    111000   299.82178     -1437.37       -1501.1088      1130.8724      329.75816      38216.42       1.0598908    
    112000   299.27193      95.286995     -1567.2866      1059.8677      1112.9782      38218.278      1.0598393    
    113000   305.08818     -2171.2264     -1566.1284      1112.0837     -111.77784      38650.16       1.0479965    
    114000   296.67073     -210.44789     -1561.1587      1043.161       926.3252       38067.596      1.0640344    
    115000   308.19885     -591.50401     -1551.2557      1154.2635      822.24794      38487.951      1.0524133    
    116000   296.62355      1890.7238     -1554.5361      1049.3694      2114.8808      38641.513      1.048231     
    117000   297.2262      -1024.8332     -1573.1201      1036.0758      456.25974      38793.698      1.0441189    
    118000   305.4207       118.34773     -1555.4844      1125.6468      1191.527       38169.716      1.0611877    
    119000   298.88724      486.91991     -1569.1321      1054.6453      1328.1245      38511.537      1.0517688    
    120000   293.02034     -1376.421      -1572.2274      1000.0475      223.193        38700.136      1.0466432    
    121000   297.27061      475.49553     -1563.0423      1046.5435      1315.2213      38744.45       1.0454461    
    122000   298.81339     -1364.9813     -1553.4263      1069.7028      301.21565      38604.152      1.0492455    
    123000   294.25704      591.30437     -1606.5981      976.53303      1309.4304      38603.202      1.0492713    
    124000   299.72203      157.33822     -1525.3036      1105.802       1193.1759      38077.815      1.0637489    
    125000   299.40019      392.46886     -1672.2904      955.98979      1176.1052      38456.466      1.053275     
    126000   304.61907      1508.7082     -1555.1936      1118.9006      1961.7293      38305.241      1.0574332    
    127000   302.21144     -665.12738     -1561.683       1091.2758      719.804        38295.272      1.0577084    
    128000   297.96363      1403.652      -1634.7875      980.88198      1762.7982      38196.613      1.0604404    
    129000   304.84876     -659.97607     -1599.2334      1076.877       708.12403      38311.708      1.0572547    
    130000   301.91343      733.97571     -1650.2062      1000.1365      1409.6412      38256.159      1.0587898    
    131000   301.24603      222.83158     -1532.7219      1111.762       1235.5616      38094.867      1.0632727    
    132000   296.50643     -528.11908     -1615.0015      987.87592      690.60738      38595.903      1.0494698    
    133000   297.11902      290.29812     -1621.385       986.86998      1151.0871      38788.08       1.0442701    
    134000   307.86297      1069.9598     -1580.2013      1122.3694      1720.4294      38326.702      1.0568411    
    135000   298.51419      118.16183     -1644.3952      976.1073       1042.7696      38683.601      1.0470905    
    136000   302.44998      759.64089     -1538.4062      1116.6466      1547.4221      38883.625      1.0417041    
    137000   293.97917     -1561.2188     -1748.1256      832.56637     -45.686767      38572.701      1.050101     
    138000   305.67887      1709.5562     -1591.5264      1091.8712      2060.3635      38845.16       1.0427356    
    139000   302.48871      51.006644     -1578.7154      1076.6774      1105.1734      38307.242      1.057378     
    140000   302.78624      717.21403     -1621.5865      1036.4182      1439.136       38501.373      1.0520464    
    141000   299.7567      -120.86693     -1593.4916      1037.9183      969.72951      38683.86       1.0470835    
    142000   298.36588      850.8286      -1699.5787      919.62189      1391.8798      38059.342      1.0642652    
    143000   303.47318     -15.13373      -1575.9758      1088.0591      1079.5141      38716.112      1.0462113    
    144000   300.90481     -702.97377     -1619.4635      1022.025       629.52122      38285.016      1.0579918    
    145000   294.60319      187.2844      -1655.7587      930.41119      1034.6463      38162.471      1.0613892    
    146000   305.60856      658.78891     -1571.3039      1111.4765      1481.9617      38561.038      1.0504186    
    147000   300.79513      746.05822     -1556.4262      1084.0995      1507.4603      38910.065      1.0409963    
    148000   306.25969     -966.99086     -1577.3915      1111.1048      559.81376      39091.534      1.0361638    
    149000   299.72211     -51.603507     -1632.052       999.05421      970.21847      38315.631      1.0571464    
    150000   301.85892     -1351.0736     -1625.8396      1024.0246      260.5449       38747.403      1.0453664    
    151000   299.39295      974.43698     -1519.9755      1108.2412      1661.5107      38932.032      1.0404089    
    152000   296.57408     -318.48103     -1584.7597      1018.7115      836.75447      39175.042      1.0339551    
    153000   303.36268     -1160.1777     -1611.0171      1052.0479      397.76723      38669.066      1.0474841    
    154000   296.27676     -603.58201     -1627.2772      973.58408      633.78997      38601.454      1.0493188    
    155000   294.2974      -1081.92       -1676.1635      907.32199      298.54267      38582.365      1.049838     
    156000   299.01288     -346.2411      -1594.5726      1030.3077      835.40656      38597.564      1.0494246    
    157000   302.92528     -127.80123     -1575.8595      1083.3657      1010.719       38976.713      1.0392162    
    158000   299.63561     -290.0291      -1537.6606      1092.6863      928.09972      38911.399      1.0409606    
    159000   306.11485      196.46275     -1574.7615      1112.4634      1224.1792      38990.482      1.0388492    
    160000   300.50992     -614.72277     -1641.9532      996.06877      649.69987      38635.248      1.048401     
    161000   299.25392     -220.1849      -1534.6154      1092.3808      967.32693      38943.395      1.0401053    
    162000   298.22631     -2342.4146     -1566.3117      1051.6636     -266.96298      38599.544      1.0493707    
    163000   305.06105     -516.84454     -1631.5781      1046.3959      758.39694      38208.075      1.0601223    
    164000   297.37541      124.20743     -1635.9435      974.56232      1044.2356      38462.956      1.0530972    
    165000   298.40631      460.29169     -1491.2757      1128.2798      1386.8544      38519.162      1.0515606    
    166000   299.14401      1732.0963     -1611.6274      1014.404       1981.7899      38295.863      1.0576921    
    167000   299.97392     -632.84597     -1612.1011      1021.2156      668.41027      38226.211      1.0596193    
    168000   297.3791       815.14299     -1535.6562      1074.8819      1536.4091      38822.865      1.0433345    
    169000   296.96616     -302.02165     -1643.3823      963.53086      795.27739      38198.832      1.0603788    
    170000   301.1519       1020.8148     -1548.8006      1094.8569      1667.5058      38464.984      1.0530417    
    171000   299.4606       1066.9509     -1567.3515      1061.4591      1660.3723      38489.615      1.0523678    
    172000   293.88669     -351.38413     -1569.3589      1010.5213      812.61777      38618.502      1.0488556    
    173000   300.53371      250.35567     -1586.5247      1051.7062      1193.8882      38941.369      1.0401594    
    174000   293.97305      948.42447     -1637.2377      943.40051      1473.9658      38358.378      1.0559684    
    175000   295.7313      -864.85058     -1530.8515      1065.2215      575.92889      38792.847      1.0441418    
    176000   293.48647     -937.23295     -1486.005       1090.3618      563.63121      38535.865      1.0511048    
    177000   297.04868      1175.8693     -1567.1935      1040.4441      1699.7678      38447.113      1.0535312    
    178000   301.87922      454.01011     -1561.3586      1088.6837      1341.5423      38188.821      1.0606568    
    179000   298.42132      626.49049     -1616.4456      1003.2417      1355.1688      38517.881      1.0515956    
    180000   298.89924     -352.97872     -1600.6683      1023.2144      824.82876      38537.711      1.0510545    
    181000   303.91257      247.4891      -1617.8779      1050.0142      1188.665       38414.057      1.0544378    
    182000   305.77029     -106.1984      -1608.9789      1075.2212      1016.202       38106.55       1.0629467    
    183000   298.15079      391.21328     -1556.0617      1061.2507      1282.4421      38768.484      1.044798     
    184000   305.6619       105.8785      -1619.4947      1063.7539      1122.481       38032.475      1.065017     
    185000   304.45122     -1822.422      -1532.3953      1140.2253      116.38453      38521.888      1.0514862    
    186000   297.97587     -279.36125     -1583.9901      1031.7868      875.2306       38426.273      1.0541026    
    187000   303.28213      1017.2917     -1581.7825      1080.5753      1644.8542      38034.038      1.0649732    
    188000   292.1856      -781.65687     -1607.7927      957.15442      524.25704      37974.574      1.0666409    
    189000   301.04         157.39947     -1641.4183      1001.257       1088.3807      37953.95       1.0672205    
    190000   301.22633     -80.764611     -1605.9718      1038.3392      993.5732       38005.914      1.0657613    
    191000   303.88424      478.57197     -1624.7099      1042.9335      1307.0812      37846.331      1.0702552    
    192000   291.29676     -18.720077     -1618.1917      938.95278      928.57998      37993.792      1.0661013    
    193000   298.44095      1903.531      -1625.8874      993.97209      2056.4621      38272.691      1.0583325    
    194000   297.93533     -217.03409     -1689.0701      926.35085      805.83651      38074.557      1.0638399    
    195000   305.34612     -1140.2652     -1549.6529      1130.8237      496.13294      38166.329      1.0612819    
    196000   297.95209      356.99281     -1640.2146      975.35361      1174.3224      38216.38       1.0598919    
    197000   294.53425      896.82865     -1607.0729      978.49169      1481.9057      38489.289      1.0523767    
    198000   296.45338     -480.37778     -1589.0346      1013.3771      745.29872      38265.111      1.0585421    
    199000   290.33236     -2114.102      -1613.0109      935.66753     -240.46217      38146.385      1.0618367    
    200000   302.87755     -127.46384     -1653.0702      1005.736       935.70071      37675.043      1.0751211    
    201000   292.92699     -478.75422     -1630.3588      941.09656      675.18117      38085.087      1.0635457    
    202000   299.34054     -916.13733     -1689.7014      938.05521      426.39977      38294.916      1.0577183    
    203000   309.18328      370.56571     -1699.4679      1014.693       1220.7834      38134.375      1.0621711    
    204000   305.91452     -1361.12       -1656.3056      1029.1605      280.65232      37707.198      1.0742043    
    205000   298.32993     -1509.7897     -1566.2166      1052.6685      208.68412      38330.284      1.0567423    
    206000   299.06445      907.52402     -1646.8605      978.47247      1487.6652      38472.299      1.0528415    
    207000   302.24235     -1297.6949     -1672.8285      980.40163      260.41302      38043.208      1.0647165    
    208000   295.15295     -299.00343     -1694.3972      896.59876      729.55444      38307.132      1.057381     
    209000   293.3448       780.50132     -1692.7426      882.38053      1318.521       38315.711      1.0571442    
    210000   293.92942     -871.41114     -1560.0547      1020.2005      530.23911      38553.416      1.0506263    
    211000   299.4568       1571.0091     -1665.1507      963.62647      1827.3551      37698.386      1.0744554    
    212000   298.0438       1041.7486     -1622.7629      993.61027      1572.4386      38098.774      1.0631637    
    213000   297.2638      -1209.4687     -1635.5819      973.94404      297.90753      38326.541      1.0568455    
    214000   296.35022     -622.86656     -1656.3039      945.20222      597.62841      38262.747      1.0586075    
    215000   302.8101       1755.7831     -1637.4099      1020.8042      2002.7709      38348.642      1.0562364    
    216000   300.06081     -581.48222     -1644.0309      990.04864      666.48117      38155.093      1.0615944    
    217000   296.52549      2286.8128     -1628.3884      974.65639      2244.3353      38070.395      1.0639562    
    218000   310.80518     -656.85009     -1523.1028      1205.296       838.81281      38257.088      1.0587641    
    219000   300.21545     -286.04099     -1614.4024      1021.0346      861.15501      38325.595      1.0568716    
    220000   298.61601      140.16159     -1658.7361      962.66021      1040.45        38055.54       1.0643715    
    221000   303.57122     -1271.9295     -1573.8201      1091.0755      375.21953      38591.059      1.0496015    
    222000   296.35129     -697.42558     -1588.2956      1013.22        627.41655      37930.83       1.067871     
    223000   301.01688      1681.4416     -1696.1028      946.36958      1878.3303      38004.93       1.0657889    
    224000   302.0179       646.69442     -1639.1667      1012.0931      1370.0446      37953.268      1.0672397    
    225000   300.5967       299.8851      -1668.7645      970.01931      1136.506       38066.997      1.0640512    
    226000   299.44884      46.155068     -1608.9095      1019.7979      1045.4943      38174.886      1.061044     
    227000   298.32172      1089.0327     -1609.1845      1009.6284      1609.4932      37769.093      1.0724439    
    228000   303.17335     -617.64509     -1616.2254      1045.1775      698.83202      38449.855      1.0534561    
    229000   297.60816      855.40686     -1630.3577      982.19122      1458.7837      38203.094      1.0602605    
    230000   294.58814      353.05545     -1565.7885      1020.2492      1216.8099      38174.897      1.0610437    
    231000   293.99723     -17.094402     -1631.5513      949.29915      939.85587      37878.504      1.0693462    
    232000   295.86717      608.12507     -1531.7924      1065.4733      1403.3202      38093.523      1.0633102    
    233000   301.66869      1586.4918     -1648.4823      999.71202      1875.2114      37839.218      1.0704564    
    234000   300.93376      566.63782     -1610.9943      1030.7484      1347.2928      38304.801      1.0574453    
    235000   300.98777      1287.631      -1624.9454      1017.2714      1734.4983      38193.483      1.0605273    
    236000   300.70351      1927.898      -1699.3093      940.4121       2027.7924      38674.216      1.0473446    
    237000   303.0556      -122.72641     -1590.2269      1070.1424      1001.6427      38271.442      1.0583671    
    238000   304.29459      1778.403      -1597.2689      1073.9768      2061.0357      38057.218      1.0643246    
    239000   297.29132     -390.82        -1594.7141      1015.0534      797.48085      38172.573      1.0611083    
    240000   299.76307     -141.94464     -1639.9638      991.50199      912.76379      38035.627      1.0649288    
    241000   306.82636     -463.36233     -1625.9433      1067.5274      809.79131      38139.824      1.0620194    
    242000   299.44934      1286.7236     -1626.549       1002.1627      1712.4491      37850.563      1.0701355    
    243000   296.97164     -703.16501     -1708.3648      898.59649      511.59891      37737.672      1.0733368    
    244000   309.33487     -1034.7957     -1659.0836      1056.4081      480.566        38156.887      1.0615445    
    245000   304.79998      303.04817     -1564.4729      1111.2093      1280.2494      38247.412      1.059032     
    246000   302.00374     -1103.1534     -1597.7218      1053.4137      436.08501      38371.139      1.0556172    
    247000   301.94038     -285.20823     -1588.1603      1062.419       901.9773       38572.627      1.050103     
    248000   298.85541     -1100.6489     -1550.2102      1073.2877      458.82003      38280.214      1.0581245    
    249000   303.95541      648.63246     -1675.9648      992.30335      1351.3333      37953.872      1.0672227    
    250000   296.50682     -1501.4196     -1586.4813      1016.3995      178.30565      38274.957      1.0582699    
    251000   299.36731     -86.208777     -1602.2567      1025.7349      977.34066      38491.645      1.0523123    
    252000   299.72995     -2830.6685     -1623.0098      1008.1653     -591.44115      38747.906      1.0453528    
    253000   304.40365      552.89432     -1714.1784      958.02458      1268.4892      38502.958      1.0520031    
    254000   310.30356     -187.80127     -1605.0436      1118.9518      1014.7397      38049.037      1.0645534    
    255000   303.69264      512.12797     -1734.0542      931.90726      1216.853       38151.165      1.0617037    
    256000   298.8987       1136.9918     -1640.5979      983.28008      1615.7009      38139.317      1.0620335    
    257000   292.62641     -263.76851     -1629.8787      938.9381       790.57031      38569.214      1.050196     
    258000   300.97593      55.152341     -1594.6893      1047.4235      1078.5048      38641.928      1.0482198    
    259000   301.80759     -1835.2202     -1573.4013      1076.0123      46.434309      38467.606      1.0529699    
    260000   301.88606      482.03527     -1642.3081      1007.7943      1275.0944      38022.828      1.0652872    
    261000   298.98848     -862.85155     -1696.3419      928.32426      450.37398      37981.38       1.0664497    
    262000   302.12361      13.219931     -1711.8532      940.3345       947.66461      38019.409      1.065383     
    263000   304.41983     -1089.1482     -1632.2602      1040.0849      433.10182      38213.227      1.0599794    
    264000   298.13116      1569.0494     -1575.8996      1041.2405      1916.5444      38251.314      1.058924     
    265000   295.71635     -658.59982     -1683.2649      912.67683      540.1997       38779.492      1.0445014    
    266000   301.68126      659.13807     -1575.2485      1073.0561      1449.1702      39126.174      1.0352465    
    267000   308.91649     -271.54508     -1616.8605      1094.9584      941.86322      38658.386      1.0477735    
    268000   293.24787     -1091.4407     -1525.8464      1048.4258      430.41704      38825.64       1.0432599    
    269000   300.35493     -31.430604     -1630.454       1006.2074      988.53266      38558.94       1.0504758    
    270000   293.72969     -262.87922     -1679.776       898.72578      751.3851       38431.78       1.0539515    
    271000   303.29013     -994.1876      -1653.064       1009.3641      453.3002       38351.334      1.0561623    
    272000   303.51891      4.0603524     -1542.4706      1121.9658      1124.2768      39027.661      1.0378596    
    273000   301.73092     -254.40977     -1646.7562      1001.9844      860.67606      38085.354      1.0635383    
    274000   310.80852     -77.838663     -1543.2072      1185.2209      1141.197       38780.886      1.0444638    
    275000   296.30934     -224.37149     -1550.2341      1050.9132      924.2071       38721.649      1.0460617    
    276000   299.08778     -528.23611     -1475.0901      1150.4476      848.07927      39249.341      1.0319978    
    277000   302.87833      1541.835      -1568.9989      1089.8142      1962.4496      38807.801      1.0437394    
    278000   299.20869     -271.70409     -1464.6859      1161.9133      1008.9015      38614.713      1.0489585    
    279000   293.41007     -981.0662      -1559.2954      1016.4008      463.01115      38677.357      1.0472596    
    280000   300.47059     -1391.7397     -1561.0885      1076.5883      297.71693      38373.537      1.0555512    
    281000   305.30081      440.96029     -1720.7521      959.32666      1207.0903      38526.731      1.051354     
    282000   304.36856     -821.45819     -1636.5477      1035.3473      574.59885      38459.399      1.0531946    
    283000   302.06158      1147.7326     -1594.4512      1057.192       1709.1351      38948.711      1.0399634    
    284000   301.3132       284.67728     -1614.7365      1030.3371      1191.0062      38699.342      1.0466646    
    285000   302.48014     -1341.0907     -1711.493       943.82454      190.20253      38531.82       1.0512151    
    286000   301.65617      165.61142     -1624.0762      1024.0082      1117.4797      38700.199      1.0466415    
    287000   305.48637     -1280.5899     -1508.0485      1173.6591      457.22291      38361.147      1.0558921    
    288000   291.80649      461.55377     -1657.965       903.65403      1160.038       38088.393      1.0634535    
    289000   296.73314      112.09136     -1553.6774      1051.1902      1114.2334      38564.725      1.0503182    
    290000   304.67387      60.613223     -1551.8484      1122.7268      1156.976       38744.228      1.045452     
    291000   298.35759     -503.01442     -1670.1111      949.01674      663.25377      38953.783      1.039828     
    292000   305.4826      -464.41232     -1669.9309      1011.7436      753.16205      38178.422      1.0609457    
    293000   301.44962      120.72136     -1674.5367      971.73442      1039.3416      38400.167      1.0548192    
    294000   299.63386     -487.01065     -1635.8922      994.43928      725.00455      37934.925      1.0677557    
    295000   302.22151      1685.944      -1560.6847      1092.3625      2046.811       38818.03       1.0434644    
    296000   301.58937     -797.54707     -1629.3656      1018.1324      569.36599      38582.298      1.0498398    
    297000   304.85415      375.82626     -1567.6287      1108.529       1320.3499      38646.1        1.0481066    
    298000   299.29472      724.45992     -1715.0239      912.33054      1313.0728      37929.308      1.0679138    
    299000   297.45751     -247.38593     -1642.5594      968.66703      830.2873       38354.964      1.0560623    
    300000   291.48716      1107.8131     -1709.17        849.64585      1467.4672      38240.233      1.0592308    
    301000   300.43782     -457.36782     -1570.9555      1066.4335      811.41884      38231.711      1.0594669    
    302000   292.61453      1360.1826     -1630.5636      938.14889      1696.0686      38207.629      1.0601347    
    303000   299.36001      162.96124     -1692.074       935.85361      1027.3424      38495.318      1.0522119    
    304000   301.64754     -375.6647      -1588.5999      1059.4087      847.21277      38731.188      1.045804     
    305000   290.3544       866.32594     -1640.5964      908.27555      1392.186       38300.796      1.0575559    
    306000   300.46945     -772.10942     -1585.822       1051.8448      617.89214      38537.862      1.0510503    
    307000   302.16929     -1039.6308     -1684.6238      967.96497      385.619        38408.386      1.0545935    
    308000   299.6419      -2770.8839     -1571.4134      1058.9887     -502.14934      38631.991      1.0484894    
    309000   307.58789     -460.28452     -1669.154       1031.0019      771.80274      38612.8        1.0490105    
    310000   297.43902     -203.78826     -1642.1649      968.89927      855.51237      38151.167      1.0617036    
    311000   300.79785      517.8366      -1610.3439      1030.2057      1317.3722      38024.638      1.0652365    
    312000   291.53017      49.184314     -1602.5061      956.68731      984.17644      38322.9        1.0569459    
    313000   296.25181     -193.77989     -1617.8356      982.80666      874.94776      38165.54       1.0613038    
    314000   301.67601      1048.5721     -1606.2496      1042.009       1626.9455      38250.274      1.0589528    
    315000   297.39429      282.87775     -1526.7745      1083.897       1240.9754      38075.154      1.0638232    
    316000   300.62416      541.40109     -1627.6945      1011.3303      1312.975       38203.282      1.0602553    
    317000   301.58412     -283.04769     -1589.7944      1057.6575      898.54055      38546.135      1.0508248    
    318000   299.54738     -751.10076     -1607.9968      1021.5756      601.75328      38325.819      1.0568654    
    319000   286.09176     -582.1182      -1697.5029      813.94949      487.97258      38397.219      1.0549002    
    320000   299.03116     -442.18167     -1634.5085      990.53225      746.56405      37831.764      1.0706673    
    321000   296.69138      949.96175     -1638.7355      965.76549      1492.504       38020.081      1.0653642    
    322000   299.58006     -238.61736     -1578.7414      1051.1179      917.97865      38258.521      1.0587245    
    323000   301.56907      1517.9289     -1577.1121      1070.2076      1916.1771      38214.433      1.0599459    
    324000   303.56676     -1262.0074     -1691.8013      973.05512      262.02213      38632.424      1.0484776    
    325000   307.54874     -58.212513     -1557.3478      1142.4644      1109.7472      38537.564      1.0510585    
    326000   298.5858       342.23269     -1582.6366      1038.4945      1230.7185      38513.248      1.0517221    
    327000   295.88428      770.45269     -1704.1109      893.305        1319.3697      37918.718      1.0682121    
    328000   299.60727     -961.26802     -1619.8843      1010.2138      474.24362      38231.402      1.0594755    
    329000   294.72708     -144.81537     -1665.4918      921.76563      841.07924      38204.077      1.0602333    
    330000   302.71038     -293.9586      -1667.8332      989.50549      825.48183      38259.953      1.0586849    
    331000   297.68432      132.12085     -1592.3743      1020.8432      1095.1277      38552.348      1.0506554    
    332000   307.37841     -543.32327     -1588.9068      1109.4101      802.98238      38671.75       1.0474114    
    333000   291.36645      133.03695     -1628.4492      929.30695      1003.3159      38144.876      1.0618787    
    334000   300.10958      335.55699     -1646.5378      987.96983      1177.5046      38729.933      1.0458379    
    335000   301.23188     -1155.2642     -1629.6957      1014.664       369.29294      38304.718      1.0574476    
    336000   295.28503     -999.9408      -1589.0945      1003.0609      446.07427      38193.953      1.0605143    
    337000   298.44167      1081.6884     -1560.7161      1059.1498      1666.235       38483.234      1.0525423    
    338000   301.99392     -1687.991      -1558.8266      1092.2227      141.05009      38637.88       1.0483296    
    339000   299.31181      518.18095     -1627.3492      1000.1552      1287.8158      38064.766      1.0641135    
    340000   306.67869      1655.2817     -1669.4108      1022.7637      1943.3129      38132.844      1.0622138    
    341000   302.9701       247.48336     -1664.3364      995.28221      1133.8765      38399.307      1.0548428    
    342000   291.1801      -1663.0173     -1664.7197      891.40058     -33.64292       38140.773      1.061993     
    343000   293.19131     -2899.9545     -1634.2317      939.544       -669.14521      38036.897      1.0648932    
    344000   295.94557     -555.94252     -1581.6347      1016.3192      710.91944      37667.16       1.0753461    
    345000   297.4397       1680.2955     -1653.9517      957.11841      1883.6269      37808.362      1.07133      
    346000   303.34138     -299.02924     -1668.6804      994.1975       828.64141      37962.572      1.0669781    
    347000   309.89788     -845.75341     -1678.768       1041.6661      573.18382      37981.625      1.0664428    
    348000   308.06832      240.93171     -1681.2533      1023.12        1156.5409      37971.17       1.0667365    
    349000   300.62452     -65.763679     -1683.4211      955.60693      918.82381      38351.872      1.0561475    
    350000   300.91732      936.32918     -1581.7394      1059.8589      1576.0981      37804.762      1.071432     
    351000   291.84597      1349.4132     -1603.0725      958.89319      1702.1829      37769.153      1.0724422    
    352000   298.32928     -679.88547     -1608.527       1010.3523      627.67937      38593.669      1.0495305    
    353000   298.00318      14.790214     -1719.2209      896.79567      905.0047       38057.609      1.0643136    
    354000   292.1076       576.44941     -1622.5617      941.70065      1264.5417      38401.806      1.0547742    
    355000   306.47929      368.90638     -1690.7903      999.63371      1207.4784      38631.979      1.0484897    
    356000   306.1919      -50.732928     -1593.1153      1094.7858      1066.1254      38736.178      1.0456693    
    357000   298.9004      -1963.8295     -1674.5955      949.29732     -164.69672      38895.844      1.0413769    
    358000   306.26497      2224.0353     -1686.984       1001.5586      2235.1624      38032.783      1.0650084    
    359000   297.169       -43.013213     -1599.4087      1009.2852      985.01329      38692.369      1.0468533    
    360000   299.35143      2383.5317     -1592.3192      1035.533       2373.3105      38484.61       1.0525047    
    361000   290.52059      1398.6205     -1583.3948      966.93602      1745.8691      38187.78       1.0606857    
    362000   302.88515     -26.493214     -1599.2734      1059.5995      1044.7564      38416.013      1.0543841    
    363000   297.30906     -143.07167     -1562.0196      1047.9036      967.54227      38513.92       1.0517037    
    364000   300.26119      237.98887     -1616.2864      1019.5521      1155.2643      39100.854      1.0359168    
    365000   293.53549     -1063.1584     -1488.0403      1088.7568      487.45143      38781.198      1.0444554    
    366000   304.38314      954.88746     -1643.2923      1028.7308      1563.7715      38420.125      1.0542712    
    367000   299.85193      321.89522     -1622.5852      1009.6606      1192.0719      38856.279      1.0424372    
    368000   294.68844      969.31738     -1572.6323      1014.2859      1559.1751      38544.847      1.0508599    
    369000   303.5799      -137.80392     -1579.9688      1085.003       1007.748       38440.506      1.0537123    
    370000   299.27427     -976.96934     -1694.1314      933.04347      383.82377      38546.884      1.0508043    
    371000   305.23172      795.0858      -1611.945       1067.5273      1509.8138      38142.905      1.0619336    
    372000   306.16041     -1260.0614     -1501.5911      1186.0336      468.1878       39062.817      1.0369255    
    373000   294.05559     -575.31945     -1601.385       979.97778      660.50823      38075.405      1.0638162    
    374000   298.98487     -1450.6695     -1548.5951      1076.0392      260.11346      38566.147      1.0502795    
    375000   298.27275      1610.5124     -1677.5613      940.82181      1836.9116      38151.497      1.0616945    
    376000   301.76877      1343.9111     -1725.8901      923.18271      1667.2379      37962.844      1.0669705    
    377000   302.29618      114.80933     -1643.8062      1009.8964      1073.779       38153.047      1.0616513    
    378000   303.97613     -1500.1275     -1688.903       979.54707      143.8163       38199.909      1.0603489    
    379000   305.26143     -80.468321     -1568.34        1111.3931      1066.8423      37962.463      1.0669811    
    380000   301.63189      1023.0759     -1656.6452      991.22599      1565.6117      38496.383      1.0521828    
    381000   307.42089     -1088.8005     -1577.1302      1121.5597      506.09312      38759.688      1.0450351    
    382000   304.56186      420.58205     -1692.0179      981.57393      1221.0958      39049.774      1.0372719    
    383000   298.39192      1379.962      -1650.5477      968.88151      1749.7367      38799.622      1.0439595    
    384000   305.05184      546.89636     -1586.385       1091.5082      1402.0059      38929.374      1.0404799    
    385000   300.28415      434.72072     -1591.5608      1044.4793      1291.4023      38947.119      1.0400059    
    386000   292.83766      691.98368     -1613.2994      957.3718       1345.0654      38416.418      1.054373     
    387000   300.29142      1063.1654     -1501.5933      1134.5106      1736.7725      38842.636      1.0428034    
    388000   302.62926      328.69955     -1551.8473      1104.7793      1288.7587      38379.05       1.0553996    
    389000   297.37382     -983.45627     -1651.5076      958.98418      408.46633      38383.137      1.0552872    
    390000   297.41286     -573.96705     -1530.8265      1080.0081      757.38386      38541.987      1.0509378    
    391000   305.80176      666.14458     -1533.7662      1150.7102      1527.9491      38830.421      1.0431314    
    392000   303.15798      441.50572     -1608.1725      1053.0955      1302.1689      38682.552      1.0471189    
    393000   295.02485     -809.47834     -1523.3795      1066.4919      605.71222      39031.223      1.0377649    
    394000   301.44349      1898.0734     -1573.8713      1072.346       2149.5887      38915.684      1.040846     
    395000   306.85918      295.7108      -1538.48        1155.2789      1322.7911      38842.172      1.0428158    
    396000   300.85491     -98.923886     -1596.5779      1044.4726      988.92456      38502.713      1.0520098    
    397000   291.1939       1059.5175     -1614.9296      941.31183      1534.9591      38418.862      1.0543059    
    398000   302.17559     -22.356919     -1616.9527      1035.6913      1023.0322      38825.27       1.0432698    
    399000   306.25035      1228.2179     -1585.7927      1102.6216      1801.9174      39039.978      1.0375321    
    400000   302.561        508.6802      -1632.6452      1023.3822      1308.9466      38493.143      1.0522714    
    401000   302.00111      606.04161     -1580.3423      1070.7701      1409.4399      38317.589      1.0570924    
    402000   297.29522      40.463162     -1629.3432      980.45857      1002.9413      38098.894      1.0631603    
    403000   304.60086     -962.53396     -1609.7558      1064.1785      527.28609      38246.816      1.0590485    
    404000   301.20229     -103.24374     -1645.9171      998.18278      940.24747      38477.222      1.0527068    
    405000   295.54272     -472.66415     -1511.2534      1083.1641      820.32478      38129.552      1.0623055    
    406000   306.41228     -1081.6072     -1528.8423      1160.9934      543.47028      39147.835      1.0346736    
    407000   302.14615     -898.39207     -1544.6135      1107.7721      597.10737      38975.709      1.039243     
    408000   307.40178     -474.52544     -1648.176       1050.3461      786.41748      38137.397      1.062087     
    409000   299.54617     -216.83286     -1584.3856      1045.1762      924.63099      38119.644      1.0625816    
    410000   296.91209      698.03947     -1611.1472      995.29135      1384.0797      38190.676      1.0606053    
    411000   295.64384      1341.2429     -1498.2205      1097.0846      1847.4574      38361.339      1.0558868    
    412000   295.93248      291.10998     -1653.5829      944.25613      1106.6037      38239.562      1.0592494    
    413000   298.44128      1055.7137     -1571.4839      1048.3786      1641.0382      38493.133      1.0522717    
    414000   303.14322      473.22262     -1610.0699      1051.0685      1319.6558      38917.435      1.0407991    
    415000   306.02295     -1036.4882     -1599.0981      1087.3199      499.70737      38873.246      1.0419823    
    416000   295.68281     -494.71279     -1596.9322      998.71514      718.53935      38833.057      1.0430606    
    417000   299.45271      705.97342     -1569.8321      1058.9092      1454.8757      38458.664      1.0532148    
    418000   300.93353      1597.0106     -1643.6301      998.1105       1888.415       38225.65       1.0596349    
    419000   300.2237       182.8239      -1668.0916      967.41786      1070.208       38551.633      1.0506749    
    420000   295.93709     -754.69294     -1532.9966      1064.8829      641.64795      38453.449      1.0533576    
    421000   300.8032      -731.80843     -1562.5855      1078.011       665.8751       38615.991      1.0489238    
    422000   307.39363      206.36108     -1535.8624      1162.5881      1278.5181      38520.525      1.0515234    
    423000   300.60712     -791.00281     -1655.3136      983.56163      539.68479      38477.653      1.052695     
    424000   298.53696     -1749.7878     -1526.6052      1094.0972      102.49839      38857.488      1.0424048    
    425000   297.81222      734.31364     -1592.2668      1022.0735      1432.1225      38289.378      1.0578713    
    426000   301.11596     -16.93615      -1684.7013      958.64081      949.07797      38716.497      1.0462009    
    427000   294.59794      37.143012     -1615.5996      970.52423      991.39551      38529.754      1.0512715    
    428000   302.19606     -627.26829     -1526.7109      1126.1129      769.43802      38989.104      1.0388859    
    429000   306.68111      475.72217     -1576.282       1115.9137      1384.1583      38663.538      1.0476339    
    430000   294.20746     -22.956002     -1622.6536      960.04229      947.04954      38808.692      1.0437155    
    431000   298.91132      593.38904     -1570.8944      1053.0942      1384.7801      38327.595      1.0568164    
    432000   294.94549     -72.554172     -1571.1775      1017.9972      977.14787      38605.295      1.0492144    
    433000   300.21798     -428.82885     -1662.9277      972.53146      732.75013      38340.297      1.0564663    
    434000   300.16609      270.22024     -1580.5834      1054.4203      1205.8159      38416.665      1.0543662    
    435000   297.43559     -1326.4268     -1639.4619      971.57212      225.71636      38556.327      1.050547     
    436000   295.67963     -121.98536     -1580.8127      1014.8066      946.10625      38616.743      1.0489034    
    437000   306.4205       399.27883     -1537.3035      1152.6045      1377.2775      38583.257      1.0498137    
    438000   301.1243       205.80862     -1634.6639      1008.7514      1124.2422      38477.591      1.0526967    
    439000   300.24904     -742.29585     -1564.0027      1071.7292      650.42927      38916.924      1.0408128    
    440000   299.37268     -412.003       -1591.1103      1036.9285      807.02844      38261.568      1.0586402    
    441000   311.23997     -792.41989     -1602.4818      1129.7338      685.04821      38478.825      1.0526629    
    442000   301.21         401.09414     -1576.7448      1067.4228      1293.4725      38643.965      1.0481645    
    443000   296.83685      711.92768     -1629.6248      976.15319      1376.8703      38594.559      1.0495063    
    444000   298.70414      114.00355     -1605.628       1016.542       1080.4545      38440.752      1.0537055    
    445000   301.84853      1092.8215     -1666.3304      983.44256      1601.2406      38763.358      1.0449361    
    446000   298.92309      13.535787     -1517.268       1106.8241      1114.5387      39080.127      1.0364663    
    447000   296.80674      868.92532     -1623.7216      981.79207      1475.8765      38989.062      1.0388871    
    448000   294.38913      133.12099     -1610.5218      973.76899      1048.7915      38642.828      1.0481954    
    449000   299.6463       2191.7129     -1624.4834      1005.9573      2250.1005      38923.404      1.0406395    
    450000   301.17162      943.87955     -1598.5549      1045.2758      1581.7961      38975.676      1.0392439    
    451000   295.63941      1239.7062     -1721.039       874.22731      1571.7407      38579.613      1.0499129    
    452000   297.81364     -934.58615     -1585.806       1028.5467      498.88747      38859.87       1.0423409    
    453000   301.4606       845.12313     -1702.0209      944.34663      1420.3235      38618.022      1.0488687    
    454000   297.11358     -660.84924     -1618.2857      989.92161      619.18683      38466.711      1.0529944    
    455000   305.87477     -1077.3432     -1623.9193      1061.198       454.57542      38609.006      1.0491136    
    456000   292.85591      395.02075     -1623.2817      947.54962      1170.9408      38776.637      1.0445783    
    457000   302.74574      774.83349     -1615.2023      1042.4468      1474.3981      38225.262      1.0596457    
    458000   296.42703      137.78973     -1560.3922      1041.7882      1120.5538      39196.183      1.0333974    
    459000   292.26666     -1312.7159     -1614.5309      951.12777      220.55793      38160.592      1.0614414    
    460000   303.31701     -478.47461     -1642.9755      1019.6885      749.57649      38708.748      1.0464103    
    461000   301.54507      896.89954     -1596.5403      1050.5687      1556.3761      38669.22       1.0474799    
    462000   294.87607     -199.23681     -1571.8939      1016.6715      904.29598      38674.633      1.0473334    
    463000   300.75888      34.541075     -1675.5573      964.65014      984.32666      39060.384      1.0369901    
    464000   302.75158      114.53261     -1533.7276      1123.9728      1188.7504      38781.061      1.0444591    
    465000   298.18532     -304.75178     -1592.3275      1025.288       855.42976      38217.699      1.0598554    
    466000   294.70531     -190.11203     -1581.217       1005.8493      898.54003      38703.638      1.0465485    
    467000   299.41254     -89.76132      -1549.1041      1079.2846      1028.521       38778.106      1.0445387    
    468000   295.14973      985.50335     -1652.2526      938.71503      1487.2422      38164.9        1.0613216    
    469000   297.7109       174.88332     -1645.5478      967.90307      1067.0886      38888.753      1.0415668    
    470000   293.2131       714.73572     -1589.4953      984.47162      1383.9596      38325.018      1.0568875    
    471000   306.80635     -935.62736     -1552.1698      1141.1253      617.76107      38355.287      1.0560534    
    472000   300.75286     -457.51929     -1678.8585      961.29623      702.03107      38856.069      1.0424429    
    473000   298.12964      1885.1153     -1693.7348      923.39201      1977.7357      38350.265      1.0561917    
    474000   301.22876     -155.78081     -1530.5937      1113.7386      1025.2731      38938.926      1.0402247    
    475000   305.27137      319.70141     -1600.5195      1079.3008      1257.8862      38302.344      1.0575132    
    476000   303.96853      41.575768     -1639.7484      1028.635       1052.0847      38674.297      1.0473424    
    477000   293.69359      327.87409     -1607.3363      970.8487       1155.279       38569.963      1.0501756    
    478000   303.88307     -346.47159     -1615.0384      1052.5948      859.52311      38209.823      1.0600738    
    479000   304.32143      726.66812     -1637.0534      1034.4279      1446.4009      38873.778      1.041968     
    480000   306.21245      433.17015     -1740.2432      947.83836      1191.512       38572.17       1.0501155    
    481000   301.90168      1369.1595     -1660.9241      989.31546      1759.1937      38556.013      1.0505555    
    482000   294.37463     -529.75566     -1669.3706      914.79281      618.14929      38395.769      1.05494      
    483000   299.61361     -2127.8291     -1579.8538      1050.2999     -146.37203      38562.258      1.0503854    
    484000   296.69566     -30.14381      -1556.4533      1048.0853      1030.9593      38956.702      1.03975      
    485000   298.16729     -1219.5822     -1645.2944      972.16285      276.76579      39097.221      1.0360131    
    486000   297.87343      632.92929     -1566.6839      1048.1937      1408.413       39024.373      1.0379471    
    487000   304.00233      1174.206      -1643.7333      1024.9468      1690.6991      38876.976      1.0418823    
    488000   299.51082      861.70894     -1525.6842      1103.5672      1593.3371      38972.264      1.0393349    
    489000   308.29377     -462.90926     -1643.7543      1062.5981      800.69327      38794.649      1.0440933    
    490000   295.46443      1693.1145     -1567.525       1026.2053      1985.727       38859.085      1.042362     
    491000   299.30544     -516.75683     -1535.8734      1091.5752      796.05898      39212.014      1.0329802    
    492000   300.79353     -450.40019     -1615.0977      1025.414       770.99751      38732.085      1.0457798    
    493000   300.82922      1815.2986     -1588.8799      1051.945       2083.4818      38963.751      1.0395619    
    494000   307.51204     -1567.3641     -1619.4005      1080.0895      194.19364      38755.814      1.0451395    
    495000   291.20244      717.04882     -1576.9987      979.31772      1382.0474      38511.378      1.0517731    
    496000   290.13322      736.83752     -1560.4814      986.44889      1404.2339      38878.114      1.0418518    
    497000   305.38805      80.89407      -1561.1714      1119.6733      1164.7936      38245.41       1.0590874    
    498000   304.1055      -1210.4838     -1667.9781      1001.6077      313.05214      39003.549      1.0385012    
    499000   301.34229     -86.494891     -1574.5911      1070.7378      1022.8675      37948.994      1.0673599    
    500000   293.52689     -1059.4097     -1671.2207      905.50081      308.70808      38626.351      1.0486425    
    500004   293.84829     -454.49773     -1661.1254      918.41758      662.36028      38630.432      1.0485317    
Loop time of 351.857 on 32 procs for 500000 steps with 2946 atoms

Performance: 122.777 ns/day, 0.195 hours/ns, 1421.032 timesteps/s, 4.186 Matom-step/s
100.0% CPU use with 32 MPI tasks x no OpenMP threads

MPI task timing breakdown:
Section |  min time  |  avg time  |  max time  |%varavg| %total
---------------------------------------------------------------
Pair    | 181.57     | 191.79     | 200.2      |  30.0 | 54.51
Bond    | 44.598     | 50.338     | 54.682     |  34.9 | 14.31
Kspace  | 41.728     | 53.742     | 68.088     |  82.8 | 15.27
Neigh   | 20.012     | 20.028     | 20.039     |   0.1 |  5.69
Comm    | 28.456     | 28.72      | 29.055     |   3.2 |  8.16
Output  | 0.0082836  | 0.010033   | 0.062173   |   9.3 |  0.00
Modify  | 5.1974     | 5.3384     | 5.4682     |   3.1 |  1.52
Other   |            | 1.893      |            |       |  0.54

Nlocal:        92.0625 ave         104 max          79 min
Histogram: 1 0 5 5 2 4 9 2 2 2
Nghost:        4469.22 ave        4518 max        4434 min
Histogram: 4 5 1 6 4 3 5 2 0 2
Neighs:        40344.9 ave       45315 max       33940 min
Histogram: 2 1 0 5 4 4 8 3 3 2

Total # of neighbors = 1291037
Ave neighs/atom = 438.23388
Ave special neighs/atom = 5.6232179
Neighbor list builds = 21085
Dangerous builds = 0

unfix EQ


# ============================================
# Heating scan: enthalpy vs temperature
# ============================================

variable T equal 300
variable T_end equal 900
variable dT equal 10

shell echo "# T(K)    Enthalpy(kcal/mol)    Volume(A^3)" > H_T.dat

label loop_T
if "${T} > ${T_end}" then "jump SELF end_loop"

reset_timestep 0
velocity all create ${T} 293847 dist gaussian mom yes rot yes
velocity all create 300 293847 dist gaussian mom yes rot yes

fix NPT all npt temp ${T} ${T} 100.0 iso 1.0 1.0 1000.0
fix NPT all npt temp 300 ${T} 100.0 iso 1.0 1.0 1000.0
fix NPT all npt temp 300 300 100.0 iso 1.0 1.0 1000.0

thermo_style custom step temp press enthalpy vol density
thermo 2000

run 500000
Ewald initialization ...
  using 12-bit tables for long-range coulomb
  G vector (1/distance) = 0.082731949
  estimated absolute RMS force accuracy = 0.40786793
  estimated relative force accuracy = 0.0012282821
  KSpace vectors: actual max1d max3d = 3 1 13
                  kxmax kymax kzmax  = 1 1 1
Generated 28 of 28 mixed pair_coeff terms from sixthpower/sixthpower mixing rule
Per MPI rank memory allocation (min/avg/max) = 14.43 | 14.45 | 14.64 Mbytes
   Step          Temp          Press         Enthalpy        Volume        Density    
         0   300           -389.58531      753.86899      38630.432      1.0485317    
      2000   297.19978     -1389.8875      273.95731      38979.397      1.0391447    
      4000   292.64276      2049.4753      2061.5775      38628.59       1.0485817    
      6000   295.78697     -433.10489      754.36202      38548.907      1.0507492    
      8000   300.69892     -1027.6666      379.42723      38478.766      1.0526645    
     10000   298.88086     -1677.2892      90.164715      38771.341      1.044721     
     12000   301.50432     -991.28963      460.89081      38503.052      1.0520006    
     14000   299.05217      797.32048      1487.0901      38387.261      1.0551738    
     16000   297.10855      973.98086      1488.7301      38371.879      1.0555968    
     18000   300.40029     -480.83485      832.20124      38557.297      1.0505205    
     20000   299.74432     -112.9318       879.35198      38084.604      1.0635592    
     22000   296.67154      969.20359      1486.3655      38583.413      1.0498095    
     24000   303.2145      -1205.7353      339.74792      37876.313      1.069408     
     26000   299.17283      191.24172      1017.4577      38427.097      1.0540799    
     28000   292.69693     -93.940971      876.35272      38833.976      1.0430359    
     30000   297.65538      616.44763      1357.4138      38348.21       1.0562483    
     32000   301.53639     -401.65269      772.65854      38312.49       1.0572331    
     34000   294.52008      23.417999      1031.3577      38540.546      1.0509771    
     36000   297.19599      819.40162      1414.8147      38640.766      1.0482513    
     38000   307.34646      434.98664      1341.8556      38160.198      1.0614524    
     40000   306.18428      737.38296      1503.6798      38363.22       1.0558351    
     42000   306.23566     -287.21256      925.98091      38472.692      1.0528307    
     44000   303.66178      1140.3391      1684.8131      38415.799      1.05439      
     46000   290.86881     -325.33907      736.75284      38816.218      1.0435131    
     48000   303.37615     -934.71694      463.31658      38612.237      1.0490258    
     50000   296.6657       42.109083      968.94954      38007.291      1.0657227    
     52000   300.29004     -247.32872      747.18255      38318.937      1.0570552    
     54000   298.45678      868.87857      1437.3058      38336.709      1.0565652    
     56000   297.14762     -168.23538      976.81439      38751.191      1.0452642    
     58000   303.09782      321.94945      1120.518       38283.655      1.0580294    
     60000   312.43241      242.85831      1188.6257      38418.191      1.0543243    
     62000   301.20425     -201.88857      963.81549      38402.259      1.0547617    
     64000   303.19918     -735.21805      568.00661      38154.234      1.0616183    
     66000   296.99171     -1002.811       438.59497      38306.379      1.0574018    
     68000   297.64854     -1158.483       340.6051       38440.416      1.0537147    
     70000   296.35725      283.2456       1114.8355      38178.458      1.0609447    
     72000   306.53341     -122.65923      1059.6406      38705.888      1.0464876    
     74000   294.75288     -49.412401      992.77868      38200.036      1.0603454    
     76000   304.2045       1065.7974      1596.2434      38074.746      1.0638346    
     78000   296.74072     -1149.0644      264.33544      38601.286      1.0493234    
     80000   304.28275     -240.13623      822.32272      38666.785      1.0475459    
     82000   299.78918      217.80582      1134.6565      38540.477      1.050979     
     84000   294.46593      418.39431      1132.704       38194.918      1.0604875    
     86000   298.69366     -678.50198      617.22037      38422.136      1.0542161    
     88000   308.45417     -582.56003      773.34803      38462.078      1.0531213    
     90000   299.75869     -223.17572      921.06388      38524.778      1.0514073    
     92000   293.99163     -2.8623513      927.64446      38606.27       1.0491879    
     94000   302.79018      1038.5516      1555.4219      38172.436      1.0611121    
     96000   304.87761      1878.6917      2031.9518      38335.322      1.0566034    
     98000   300.27035     -1246.4923      252.60751      38793.998      1.0441108    
    100000   296.90175     -2010.9511     -105.59052      38478.73       1.0526655    
    102000   301.65934     -475.33457      820.32241      38307.475      1.0573715    
    104000   294.99778      185.04955      1097.1372      38548.177      1.0507691    
    106000   300.57072      1370.1381      1816.8236      38567.449      1.050244     
    108000   299.67683      909.62457      1534.3984      38274.837      1.0582732    
    110000   296.40863     -995.6605       432.03341      38405.713      1.0546669    
    112000   305.90979     -590.4846       760.40154      38833.134      1.0430585    
    114000   301.94396     -242.1953       949.47136      38616.256      1.0489166    
    116000   299.5693      -1631.2825      110.29733      38348.937      1.0562283    
    118000   300.11485      1012.5839      1611.1534      38314.17       1.0571867    
    120000   292.32922     -1647.7676     -37.089343      38145.565      1.0618595    
    122000   298.705       -918.17528      537.98544      38492.409      1.0522914    
    124000   299.65256     -318.77955      791.30798      38578.234      1.0499504    
    126000   300.76248      78.783755      1038.0537      38416.196      1.0543791    
    128000   299.67749     -570.52775      746.44886      38606.193      1.04919      
    130000   300.51581      1887.0371      2077.1827      38539.951      1.0509934    
    132000   303.10506      599.588        1303.2308      38014.534      1.0655196    
    134000   302.13726     -1650.1053      57.127134      38468.886      1.0529349    
    136000   297.19424      107.23217      978.31759      38141.741      1.061966     
    138000   300.30176     -247.7928       837.8327       38374.868      1.0555146    
    140000   300.47889     -670.66703      627.88642      38536.523      1.0510868    
    142000   296.33036      2033.4472      2147.7026      38457.362      1.0532504    
    144000   298.29117     -420.08064      742.45811      39042.948      1.0374532    
    146000   298.8305      -68.230352      985.07079      38621.497      1.0487743    
    148000   294.52781      244.9083       1089.1663      38239.55       1.0592497    
    150000   293.65021     -177.52902      912.57887      38549.086      1.0507443    
    152000   296.97893      815.42786      1455.9377      38066.927      1.0640531    
    154000   293.57198      235.24317      1113.8849      38063.967      1.0641359    
    156000   295.4287      -552.44936      665.77878      38319.941      1.0570275    
    158000   298.94183      919.02188      1481.2896      38385.442      1.0552238    
    160000   304.87301      118.39772      1164.4435      38499.021      1.0521107    
    162000   298.36566      490.54566      1312.9779      38475.448      1.0527553    
    164000   302.34936      222.97204      1193.8911      37851.068      1.0701213    
    166000   297.67353     -2137.0937     -109.03636      38805.942      1.0437894    
    168000   310.73576     -517.34615      813.35168      38729.729      1.0458434    
    170000   300.6435      -272.66863      906.82008      38316.169      1.0571316    
    172000   295.64346     -1310.0404      247.64906      38752.202      1.0452369    
    174000   300.79502     -535.35362      702.88149      38862.746      1.0422638    
    176000   293.8293      -465.94636      704.82039      38719.986      1.0461066    
    178000   298.79295     -8.9995044      1024.5302      38588.847      1.0496616    
    180000   302.76422     -854.50163      663.76116      38599.811      1.0493635    
    182000   302.10133      1203.8565      1610.4308      37807.713      1.0713484    
    184000   302.30324     -1943.7352      19.517233      38582.428      1.0498363    
    186000   293.71474      307.70726      1171.3815      38890.505      1.0415198    
    188000   303.39714      613.53235      1381.0644      38554.387      1.0505998    
    190000   293.92405      787.49597      1423.6444      38704.86       1.0465154    
    192000   298.95359      1524.8486      1916.0446      38254.976      1.0588226    
    194000   296.8012      -41.564766      959.29284      38371.165      1.0556164    
    196000   299.56266      641.84219      1518.1502      38660.2        1.0477244    
    198000   292.27556     -1090.8303      377.70018      38010.421      1.0656349    
    200000   304.41932      834.35023      1580.6996      38691.161      1.046886     
    202000   295.26413     -1316.7522      191.83259      38311.745      1.0572537    
    204000   293.21958     -1051.2704      397.70217      38596.856      1.0494438    
    206000   304.13604     -1727.7305      90.975992      38531.653      1.0512197    
    208000   306.16631     -403.12807      835.27816      38552.03       1.0506641    
    210000   300.49075      388.52449      1189.9673      38553.963      1.0506114    
    212000   297.08515      1650.7319      1911.2417      38278.181      1.0581807    
    214000   292.71695     -2185.21       -307.56934      38284.244      1.0580131    
    216000   299.26051     -75.757064      977.79802      38564.17       1.0503333    
    218000   298.39618     -1139.5207      357.50168      38490.991      1.0523302    
    220000   310.91011     -695.87709      633.57222      38236.389      1.0593373    
    222000   300.55255     -544.39868      710.44724      38788.322      1.0442636    
    224000   305.49848      302.897        1207.8736      38082.888      1.0636072    
    226000   301.11404     -2381.0408     -248.04909      38561.399      1.0504088    
    228000   299.08389     -515.53603      712.07212      38550.771      1.0506984    
    230000   306.00827      1066.784       1701.5014      37736.311      1.0733755    
    232000   294.61176      138.40965      977.31653      38128.471      1.0623356    
    234000   308.69534     -293.93958      978.20916      38259.503      1.0586973    
    236000   295.18582      447.47201      1140.1885      38498.502      1.0521249    
    238000   293.46672     -136.81998      795.05223      38120.216      1.0625657    
    240000   297.69492     -2415.8667     -381.34547      38430.881      1.0539762    
    242000   298.86398      716.24089      1305.9622      38283.094      1.0580449    
    244000   297.84964     -2704.155      -540.90011      38155.505      1.0615829    
    246000   292.95655      326.28111      1124.7776      37906.881      1.0685456    
    248000   299.62474      594.16357      1395.732       38121.076      1.0625417    
    250000   300.08628      117.29334      1026.2413      37953.459      1.0672343    
    252000   309.17805     -1229.8808      365.31378      38710.243      1.0463699    
    254000   305.95758      973.99244      1633.5354      38533.215      1.0511771    
    256000   300.91533      66.309785      1063.4314      39069.821      1.0367397    
    258000   300.47664      2210.4339      2283.1653      38631.441      1.0485043    
    260000   299.91611      905.49539      1561.3759      38723.032      1.0460243    
    262000   299.01023     -219.59214      872.01903      38809.217      1.0437014    
    264000   296.1933       915.90205      1514.0894      38388.63       1.0551362    
    266000   298.35755     -1474.4484      214.28169      38270.894      1.0583822    
    268000   290.79336     -1205.6158      262.22732      38339.766      1.056481     
    270000   296.62929      158.39835      1110.9597      38637.523      1.0483393    
    272000   297.73711      2893.5248      2604.5501      38324.253      1.0569086    
    274000   306.73476      2166.8179      2265.0645      38410.466      1.0545364    
    276000   299.09406      1286.345       1735.158       38196.255      1.0604504    
    278000   293.3016       1124.9387      1630.2979      38304.883      1.0574431    
    280000   299.18105     -1208.7276      405.06406      37669.38       1.0752827    
    282000   297.83856     -112.73293      949.75046      38367.323      1.0557222    
    284000   297.62157     -1724.4097      57.826783      37950.532      1.0673166    
    286000   299.39374      978.55759      1447.721       38126.481      1.0623911    
    288000   297.76664     -684.8078       666.06887      38536.48       1.051088     
    290000   305.10504      1836.4051      2125.05        38338.174      1.0565248    
    292000   308.89543      1495.0067      2098.0053      38428.667      1.0540369    
    294000   293.6792       459.60419      1215.1608      38774.365      1.0446395    
    296000   305.70432      549.50455      1408.0024      37989.954      1.066209     
    298000   307.00238     -291.18968      791.00206      37942.564      1.0675407    
    300000   299.38909     -1099.131       353.01795      38105.44       1.0629777    
    302000   308.48952      452.54153      1316.9604      38117.344      1.0626457    
    304000   307.62632      1260.0334      1819.2437      38108.704      1.0628867    
    306000   303.4175       719.22285      1504.6275      38286.319      1.0579558    
    308000   294.81587      760.31769      1269.2325      38008.82       1.0656798    
    310000   305.42342     -556.25081      726.09639      37988.17       1.0662591    
    312000   299.48953     -699.20424      539.29594      37900.001      1.0687396    
[...]
     82000   883.54707     -1082.0086      11395.954      62404.352      0.64907705   
     84000   912.84597      1356.016       13816.945      62352.077      0.64962123   
     86000   896.24195      918.31792      13184.909      59467.713      0.68112982   
     88000   915.65323     -1476.2027      11432.832      58518.374      0.69217973   
     90000   878.50718     -444.70068      11881.441      62002.084      0.65328825   
     92000   895.87848     -870.23948      11890.306      64560.41       0.62740049   
     94000   875.22122      1041.1418      13240.78       65056.732      0.62261401   
     96000   864.52409     -192.75376      12030.673      61610.219      0.65744342   
     98000   928.78114      126.13109      12804.197      61649.914      0.6570201    
    100000   893.73285     -898.97635      11497.059      65850.247      0.61511132   
    102000   877.55629     -1376.9994      11032.654      65641.348      0.61706887   
    104000   898.67335      372.66845      12743.353      68583.798      0.59059478   
    106000   889.10739     -569.17115      12137.097      66928.77       0.60519912   
    108000   906.38554      141.7275       12646.005      64172.839      0.63118966   
    110000   893.45847      14.631934      12448.194      61956.103      0.65377308   
    112000   926.24808      1046.4721      13694.594      61639.225      0.65713403   
    114000   913.81839     -84.633757      12426.787      58885.773      0.68786111   
    116000   889.7593       1093.4223      13332.708      59458.81       0.68123181   
    118000   912.59255     -727.75992      11867.95       61559.656      0.65798342   
    120000   910.46326      713.79929      13249.839      64783.306      0.62524183   
    122000   893.71103     -521.72413      11895.168      60089.607      0.67408051   
    124000   910.31275     -1020.1586      11683.796      57767.598      0.70117565   
    126000   915.84995      1467.7911      13885.645      60975.325      0.66428892   
    128000   883.81898      43.8984        12348.575      60905.236      0.66505338   
    130000   902.32582     -2620.488       10263.892      60389.96       0.67072793   
    132000   892.24852      878.89192      13163.847      64761.798      0.62544948   
    134000   882.73893      649.97926      12849.382      65442.722      0.61894174   
    136000   890.212        163.35507      12584.194      63225.914      0.64064289   
    138000   886.89225     -1213.3101      11387.741      59891.215      0.67631342   
    140000   893.6918       33.909133      12385.974      61977.535      0.65354701   
    142000   883.8411       1160.6148      13509.536      66202.701      0.61183656   
    144000   915.29014     -852.16956      11761.104      66114.254      0.61265507   
    146000   887.36273      581.82319      13026.898      64367.674      0.62927911   
    148000   898.10355     -1445.757       11291.188      59648.187      0.67906897   
    150000   895.17495      362.98576      12966.275      61558.838      0.65799216   
    152000   903.23521      99.867279      12459.911      60676.816      0.66755699   
    154000   890.16135     -389.62806      12005.986      59928.188      0.67589617   
    156000   901.82238     -2026.389       10679.334      59306.881      0.68297695   
    158000   901.27449      222.20419      12761.38       59967.122      0.67545734   
    160000   899.16601     -350.96804      12289.204      62825.91       0.64472178   
    162000   905.96358      81.175064      12480.873      59954.1        0.67560405   
    164000   904.42884      603.80245      13077.877      62732.22       0.64568467   
    166000   911.42238      463.2958       13223.242      65975.559      0.613943     
    168000   889.69881     -191.244        12180.848      64732.356      0.62573395   
    170000   917.45032     -1307.6176      11445.411      62698.142      0.64603562   
    172000   879.96331      2004.179       14355.396      63867.359      0.63420867   
    174000   912.24335      484.47348      13303.46       66918.575      0.60529132   
    176000   898.15278     -174.3836       12304.998      72057.611      0.56212289   
    178000   891.86444      566.37323      13215.916      73843.808      0.54852578   
    180000   892.62651      2255.1663      14617.007      68194.548      0.59396585   
    182000   900.09683      1097.7605      13628.071      69915.485      0.57934565   
    184000   909.67273     -456.11458      11949.783      68615.456      0.59032229   
    186000   883.14547      1642.5918      13986.142      65441.44       0.61895387   
    188000   878.0957      -716.78231      11562.154      63031.682      0.64261704   
    190000   924.58365     -552.74587      12185.153      59661.888      0.67891303   
    192000   906.39803     -409.41422      12145.504      61603.427      0.6575159    
    194000   915.40728      129.13636      12763.329      61159.736      0.66228593   
    196000   897.40184      1160.6349      13287.6        56402.023      0.71815212   
    198000   909.76236     -1377.1115      11328.35       56381.782      0.71840994   
    200000   906.15516      225.65559      12604.645      59502.599      0.68073048   
    202000   913.09877      565.64475      13119.064      61491.378      0.65871402   
    204000   897.43339     -420.11421      12070.675      65059.263      0.62258979   
    206000   907.53341     -926.51469      11684.856      63310.363      0.63978835   
    208000   910.0719       995.21664      13500.942      65591.777      0.61753522   
    210000   917.68619      150.53529      12831.856      61122.625      0.66268804   
    212000   878.15365      399.83474      12606.832      63232.944      0.64057167   
    214000   890.08352      1025.2119      13292.111      66603.216      0.60815731   
    216000   891.02229      573.88394      12998.843      67653.902      0.59871244   
    218000   923.21311     -1639.2605      10991.087      65366.75       0.6196611    
    220000   887.35335     -1337.3125      11006.148      64911.363      0.62400836   
    222000   903.19062      986.64941      13532.661      61353.037      0.66019931   
    224000   909.7522       20.480377      12807.215      63857.058      0.63431098   
    226000   895.60712      116.32707      12561.768      62235.725      0.65083572   
    228000   890.0172      -416.9529       11748.319      60554.893      0.66890107   
    230000   901.98648      476.56985      12760.29       58087.003      0.69732006   
    232000   880.52463     -770.82115      11487.611      57573.565      0.70353872   
    234000   918.12558      545.15311      13123.713      60941.893      0.66465334   
    236000   911.52423      666.06183      12897.701      63187.322      0.64103417   
    238000   905.8463       691.84127      13336.043      64908.918      0.62403186   
    240000   896.6539       1420.1236      13749.091      59980.089      0.67531131   
    242000   904.10888     -1149.0127      11375.817      59236.242      0.68379139   
    244000   918.41745     -687.83671      12028.94       59060.135      0.68583035   
    246000   919.54786      2069.3106      14463.236      56843.971      0.71256867   
    248000   882.8345      -1379.7752      11132.553      56299.495      0.71945996   
    250000   904.42549      1052.1141      13450.496      57033.97       0.71019487   
    252000   890.47247     -1335.2144      11119.305      61160.127      0.6622817    
    254000   887.644       -1778.3329      10798.28       59914.31       0.67605273   
    256000   871.78995      215.18341      12414.107      56810.289      0.71299114   
    258000   903.01024      2304.2291      14241.616      54828.914      0.73875679   
    260000   890.03825     -683.75656      11782.732      59330.854      0.68270099   
    262000   889.49853      783.75044      12928.217      61215.434      0.66168334   
    264000   902.06473     -1403.416       11296.967      59171.973      0.68453409   
    266000   910.68004      350.71183      12697.073      58629.886      0.69086323   
    268000   900.37687     -907.25559      11600.171      56193.84       0.72081269   
    270000   910.29884      363.21485      12832.366      57469.942      0.70480727   
    272000   911.77601      458.96153      12813.839      54280.039      0.74622704   
    274000   884.34937      1562.0269      13398.929      56084.441      0.72221871   
    276000   893.28132      970.32871      13236.92       57478.271      0.70470514   
    278000   888.73803     -1216.6961      11353.941      61704.926      0.65643434   
    280000   900.17197      1339.9127      13589.129      60601.666      0.6683848    
    282000   918.74131     -305.29802      12266.043      63128.289      0.64163362   
    284000   895.19324      328.67497      12585.185      60405.506      0.67055531   
    286000   901.8148      -1763.1099      10975.589      61948.749      0.6538507    
    288000   881.02292      1076.0807      13047.612      58176.159      0.69625141   
    290000   907.16169      353.06681      13045.797      62593.224      0.64711849   
    292000   895.43159     -996.83442      11496.54       60743.681      0.66682216   
    294000   890.42197     -1302.2612      11085.21       60778.646      0.66643855   
    296000   896.45332     -1958.1283      10872.057      59641.497      0.67914514   
    298000   875.43561      1042.5424      13088.798      60389.67       0.67073114   
    300000   899.08891     -577.05758      12017.198      59893.567      0.67628686   
    302000   913.21222      445.13757      13052.101      59894.645      0.6762747    
    304000   898.41101      464.34225      12964.344      64518.903      0.62780412   
    306000   900.71479     -230.33837      12199.872      60957.365      0.66448464   
    308000   893.49125     -2240.9871      10426.062      59693.704      0.67855117   
    310000   916.53374     -1355.7918      11511.452      60472.405      0.66981349   
    312000   914.04752      1105.917       13523.216      62604.566      0.64700126   
    314000   877.501       -71.206034      12074.95       61975.772      0.6535656    
    316000   926.42173     -104.86818      12453.381      58603.141      0.69117853   
    318000   913.60438      166.40184      12709.235      59478.575      0.68100543   
    320000   891.34191     -562.72607      12030.9        62523.594      0.64783916   
    322000   912.97313     -925.94077      11875.454      68329.153      0.59279577   
    324000   889.80275      71.297321      12519.65       66402.325      0.60999721   
    326000   911.18472     -740.56267      11871.196      64208.301      0.63084106   
    328000   886.24836     -932.8424       11514.263      61848.976      0.65490547   
    330000   900.28255     -314.09028      12311.294      62360.254      0.64953605   
    332000   873.49665     -1535.5513      10756.865      61465.782      0.65898832   
    334000   896.14942      722.87968      12952.752      62885.194      0.64411399   
    336000   896.2108       11.551435      12494.429      68445.164      0.59179101   
    338000   893.1633       2054.1189      14473.767      65718.371      0.61634566   
    340000   906.82797     -811.93202      11775.244      64971.08       0.62343481   
    342000   902.25987      961.99337      13433.873      61726.387      0.65620612   
    344000   887.74567      192.51356      12553.07       59610.372      0.67949974   
    346000   894.51784      352.7795       12749.156      57525.699      0.70412413   
    348000   888.0868      -658.45478      11686.036      59030.621      0.68617325   
    350000   907.78867     -133.33108      12740.058      61125.595      0.66265585   
    352000   872.44157     -596.6405       11501.511      62584.352      0.64721022   
    354000   933.34648      328.82001      13060.865      60067.203      0.67433192   
    356000   876.85476     -137.53485      12086.949      61859.013      0.6547992    
    358000   905.61565      2757.2166      14890.614      59704.638      0.6784269    
    360000   895.01858     -626.21925      12071.229      63303.175      0.63986099   
    362000   893.37728     -166.08827      12210.892      60734.543      0.66692249   
    364000   888.80372     -80.683098      12321.118      64417.149      0.6287958    
    366000   868.40495     -829.02941      11406.752      63064.026      0.64228746   
    368000   901.46979     -1642.217       10943.938      59378.408      0.68215424   
    370000   916.97683     -729.74611      12112.609      59750.955      0.67790101   
    372000   898.50748      1270.5217      13442.754      58116.197      0.69696977   
    374000   874.11978     -620.29203      11657.265      61870.551      0.65467709   
    376000   893.03801      1208.062       13306.065      61820.683      0.65520519   
    378000   884.02254      579.39105      12667.063      63990.162      0.63299156   
    380000   900.23627     -18.193436      12652.086      60066.986      0.67433436   
    382000   875.43164     -30.8813        12265.741      62997.34       0.64296735   
    384000   922.65593     -188.13843      12461.5        60972.316      0.6643217    
    386000   910.80974      888.93926      13233.42       59987.173      0.67523157   
    388000   898.59002     -225.23423      12340.641      62945.776      0.64349405   
    390000   889.59166     -211.73183      11960.675      64620.08       0.62682114   
    392000   909.03102     -543.51312      12197.757      69555.073      0.58234764   
    394000   864.96595     -1074.0935      11411.863      68448.352      0.59176345   
    396000   899.2859       282.59069      12741.378      66212.36       0.6117473    
    398000   917.54905     -331.72391      12387.98       65470.616      0.61867805   
    400000   873.8039      -1364.0864      10892.578      62672.393      0.64630104   
    402000   896.76718      94.895152      12781.579      60960.866      0.66444647   
    404000   891.00946     -1125.2982      11456.04       64460.99       0.62836814   
    406000   893.76339      71.549662      12434.281      66468.911      0.60938614   
    408000   900.79804     -562.1214       11986.8        63464.121      0.6382383    
    410000   906.67002      400.19921      12985.109      62799.93       0.6449885    
    412000   928.82338     -1900.1109      10921.948      62414.624      0.64897023   
    414000   913.04814     -401.09017      12154.082      59151.786      0.6847677    
    416000   913.53001      121.97458      12486.279      58071.428      0.69750709   
    418000   903.38005     -264.34936      12156.453      57731.751      0.70161102   
    420000   871.87135     -1598.3648      10858.65       56230.38       0.72034428   
    422000   904.85878     -1358.7806      11375.969      58354.933      0.6941184    
    424000   913.48312      2142.672       14328.585      60408.776      0.67051901   
    426000   888.63973     -605.00367      11970.683      57981.076      0.69859401   
    428000   898.97167      1018.6538      13290.1        61162.717      0.66225365   
    430000   915.02283     -2310.1672      10521.014      59314.299      0.68289153   
    432000   920.98848     -744.42315      11999.305      62231.828      0.65087647   
    434000   894.71339      1574.8858      13774.684      60206.596      0.67277069   
    436000   896.30899      165.96917      12761.169      61704.714      0.6564366    
    438000   911.58013      774.08967      13320.681      61199.472      0.66185592   
    440000   904.24417     -58.133625      12490.522      59272.251      0.68337598   
    442000   895.40539      2271.2329      14475.917      61700.453      0.65648193   
    444000   896.65503      324.94059      12806.52       64768.884      0.62538105   
    446000   900.58252     -650.15183      11878.181      66175.679      0.61208639   
    448000   923.49423     -688.4177       12036.713      63552.22       0.63735354   
    450000   883.35881      830.75284      13079.401      59116.994      0.68517071   
    452000   894.04054      2283.1852      14376.283      61835.477      0.65504844   
    454000   917.30837      1867.9141      14463.052      64825.945      0.62483057   
    456000   907.05046      557.55711      13007.494      60414.359      0.67045705   
    458000   909.65439      905.50542      13101.169      60204.51       0.67279399   
    460000   919.77707     -71.439354      12750.295      62476.26       0.64832998   
    462000   895.523       -1061.3665      11425.041      63280.799      0.64008725   
    464000   910.21669     -380.90434      12270.447      62690.078      0.64611871   
    466000   912.06071      61.623154      12631.035      58455.33       0.69292626   
    468000   890.52375      279.0808       12656.667      60702.909      0.66727005   
    470000   930.09194      1436.2752      14215.14       64035.578      0.63254263   
    472000   906.98776     -969.11153      11629.746      62419.102      0.64892367   
    474000   925.39464      1447.7846      13899.271      59562.087      0.6800506    
    476000   916.31207      866.8378       13297.065      62006.792      0.65323865   
    478000   910.00505     -1410.7599      11411.992      59904.972      0.67615811   
    480000   911.78731     -643.36145      12035.779      58743.648      0.68952532   
    482000   888.16575     -2177.6464      10373.626      60953.998      0.66452135   
    484000   892.6604       281.1709       12786.097      62910.753      0.6438523    
    486000   894.10453      1106.4949      13632.409      62645.626      0.64657718   
    488000   893.29244      2111.6369      14538.475      65189.101      0.62134977   
    490000   914.82809     -411.84888      12274.155      62016.281      0.65313869   
    492000   908.42106     -1246.5856      11320.35       59646.165      0.67909199   
    494000   898.86742      367.15062      12633.454      57986.631      0.6985271    
    496000   889.62475     -171.73482      12049.422      62716.868      0.64584272   
    498000   892.08381      534.15261      12968.51       63619.331      0.63668121   
    500000   889.41455      154.08884      12359.647      65250.677      0.62076341   
Loop time of 327.346 on 32 procs for 500000 steps with 2946 atoms

Performance: 131.971 ns/day, 0.182 hours/ns, 1527.437 timesteps/s, 4.500 Matom-step/s
100.0% CPU use with 32 MPI tasks x no OpenMP threads

MPI task timing breakdown:
Section |  min time  |  avg time  |  max time  |%varavg| %total
---------------------------------------------------------------
Pair    | 110.98     | 121.41     | 132.62     |  57.3 | 37.09
Bond    | 47.005     | 54.51      | 59.025     |  52.6 | 16.65
Kspace  | 70.597     | 86.116     | 103.7      | 101.5 | 26.31
Neigh   | 32.434     | 32.471     | 32.491     |   0.3 |  9.92
Comm    | 25.548     | 25.798     | 26.185     |   2.8 |  7.88
Output  | 0.0041256  | 0.0050276  | 0.031822   |   6.8 |  0.00
Modify  | 5.203      | 5.3419     | 5.4879     |   3.5 |  1.63
Other   |            | 1.698      |            |       |  0.52

Nlocal:        92.0625 ave         130 max          63 min
Histogram: 1 6 5 3 5 3 2 4 2 1
Nghost:        3043.38 ave        3134 max        2982 min
Histogram: 1 5 4 8 3 6 1 2 1 1
Neighs:        23999.2 ave       36300 max       15150 min
Histogram: 2 3 5 7 4 5 3 1 1 1

Total # of neighbors = 767976
Ave neighs/atom = 260.68432
Ave special neighs/atom = 5.6232179
Neighbor list builds = 44525
Dangerous builds = 0

variable H equal enthalpy
variable V equal vol
print "${T} ${H} ${V}" append H_T.dat
900 12359.646685987 65250.6769791262

unfix NPT

variable T equal ${T}+${dT}
variable T equal 900+${dT}
variable T equal 900+10
jump SELF loop_T
if "${T} > ${T_end}" then "jump SELF end_loop"
jump SELF end_loop

print "Heating scan finished."
Heating scan finished.
Total wall time: 5:49:28
