LAMMPS data file via write_data, version 22 Aug 2018, timestep = 282

10420 atoms
7 atom types
11210 bonds
9 bond types
18000 angles
14 angle types
27160 dihedrals
17 dihedral types
6000 impropers
8 improper types

0.0000000000000000e+00 6.6037199999999999e+01 xlo xhi
0.0000000000000000e+00 6.6037199999999999e+01 ylo yhi
0.0000000000000000e+00 6.6037199999999999e+01 zlo zhi

Masses

1 14.0067
2 12.0112
3 1.00797
4 15.9994
5 1.00797
6 1.008
7 12.0112

Pair Coeffs # lj/class2/coul/long

1 0.106 4.07
2 0.064 3.9
3 0.02 2.995
4 0.267 3.3
5 0.013 1.098
6 0.013 1.65
7 0.064 4.01

Bond Coeffs # class2

1 1.5 322.8 0 0
2 1.355 312.912 0 0
3 1.41 279.074 0 0
4 1.417 470.836 -627.618 1327.63
5 1.0982 372.825 -803.453 894.317
6 1.42 280 0 0
7 1.01 462.75 -1053.63 1545.76
8 1.026 483.451 0 0
9 1.0883 365.768 -725.54 781.662

Angle Coeffs # class2

1 120 68 0 0
2 120 90 0 0
3 120 68 0 0
4 120 80 0 0
5 118.9 61.0226 -34.9931 0
6 117.94 35.1558 -12.4682 0
7 120 102 0 0
8 120 37.5 0 0
9 120 37.5 0 0
10 120 50 0 0
11 122 35 0 0
12 122 35 0 0
13 122 35 0 0
14 122 35 0 0

BondBond Coeffs

1 0 1.5 1.355
2 0 1.5 1.41
3 0 1.355 1.41
4 0 1.5 1.417
5 68.2856 1.417 1.417
6 1.0795 1.417 1.0982
7 0 1.42 1.417
8 0 1.0883 1.5
9 0 1.0883 1.355
10 0 1.41 1.42
11 0 1.41 1.01
12 0 1.42 1.01
13 0 1.42 1.026
14 0 1.026 1.026

BondAngle Coeffs

1 0 0 1.5 1.355
2 0 0 1.5 1.41
3 0 0 1.355 1.41
4 0 0 1.5 1.417
5 28.8708 28.8708 1.417 1.417
6 20.0033 24.2183 1.417 1.0982
7 0 0 1.42 1.417
8 0 0 1.0883 1.5
9 0 0 1.0883 1.355
10 0 0 1.41 1.42
11 0 0 1.41 1.01
12 0 0 1.42 1.01
13 0 0 1.42 1.026
14 0 0 1.026 1.026

Dihedral Coeffs # class2

1 0 0 0.5 360 0 0
2 0 0 0.5 360 0 0
3 0 0 1.25 360 0 0
4 0 0 1.25 360 0 0
5 0 0 1.25 360 0 0
6 0 0 1.25 360 0 0
7 0 0 3 360 0 0
8 0 0 3 360 0 0
9 8.3667 0 1.1932 0 0 0
10 0 0 3.9661 0 0 0
11 0 0 1.8769 0 0 0
12 0 0 2.25 360 0 0
13 0 0 2.25 360 0 0
14 0 0 3 360 0 0
15 0 0 3 360 0 0
16 0 0 2.25 360 0 0
17 0 0 0.5 360 0 0

AngleAngleTorsion Coeffs

1 0 120 120
2 0 120 120
3 0 120 120
4 0 120 122
5 0 120 120
6 0 120 122
7 0 120 118.9
8 0 120 117.94
9 0 118.9 118.9
10 0 118.9 117.94
11 0 117.94 117.94
12 0 120 120
13 0 122 120
14 0 120 118.9
15 0 120 117.94
16 0 120 122
17 0 120 120

EndBondTorsion Coeffs

1 0 0 0 0 0 0 1.355 1.417
2 0 0 0 0 0 0 1.41 1.417
3 0 0 0 0 0 0 1.5 1.42
4 0 0 0 0 0 0 1.5 1.01
5 0 0 0 0 0 0 1.355 1.42
6 0 0 0 0 0 0 1.355 1.01
7 0 0 0 0 0 0 1.5 1.417
8 0 0 0 0 0 0 1.5 1.0982
9 -0.1185 6.3204 0 -0.1185 6.3204 0 1.417 1.417
10 0 -6.8958 0 0 -0.4669 0 1.417 1.0982
11 0 -0.689 0 0 -0.689 0 1.0982 1.0982
12 0 0 0 0 0 0 1.41 1.417
13 0 0 0 0 0 0 1.01 1.417
14 0 0 0 0 0 0 1.42 1.417
15 0 0 0 0 0 0 1.42 1.0982
16 0 0 0 0 0 0 1.417 1.026
17 0 0 0 0 0 0 1.0883 1.417

MiddleBondTorsion Coeffs

1 0 0 0 1.5
2 0 0 0 1.5
3 0 0 0 1.41
4 0 0 0 1.41
5 0 0 0 1.41
6 0 0 0 1.41
7 0 0 0 1.417
8 0 0 0 1.417
9 27.5989 -2.312 0 1.417
10 0 -1.1521 0 1.417
11 0 4.8228 0 1.417
12 0 0 0 1.42
13 0 0 0 1.42
14 0 0 0 1.417
15 0 0 0 1.417
16 0 0 0 1.42
17 0 0 0 1.5

BondBond13 Coeffs

1 0 1.355 1.417
2 0 1.41 1.417
3 0 1.5 1.42
4 0 1.5 1.01
5 0 1.355 1.42
6 0 1.355 1.01
7 0 1.5 1.417
8 0 1.5 1.0982
9 53 1.417 1.417
10 -6.2741 1.417 1.0982
11 -1.7077 1.0982 1.0982
12 0 1.41 1.417
13 0 1.01 1.417
14 0 1.42 1.417
15 0 1.42 1.0982
16 0 1.417 1.026
17 0 1.0883 1.417

AngleTorsion Coeffs

1 0 0 0 0 0 0 120 120
2 0 0 0 0 0 0 120 120
3 0 0 0 0 0 0 120 120
4 0 0 0 0 0 0 120 122
5 0 0 0 0 0 0 120 120
6 0 0 0 0 0 0 120 122
7 0 0 0 0 0 0 120 118.9
8 0 0 0 0 0 0 120 117.94
9 1.9767 1.0239 0 1.9767 1.0239 0 118.9 118.9
10 0 2.5014 0 0 2.7147 0 118.9 117.94
11 0 2.4501 0 0 2.4501 0 117.94 117.94
12 0 0 0 0 0 0 120 120
13 0 0 0 0 0 0 122 120
14 0 0 0 0 0 0 120 118.9
15 0 0 0 0 0 0 120 117.94
16 0 0 0 0 0 0 120 122
17 0 0 0 0 0 0 120 120

Improper Coeffs # class2

1 2.0568 0
2 10 0
3 4.8912 0
4 10 0
5 7.1794 0
6 2.0568 0
7 0.1 0
8 0.1 0

AngleAngle Coeffs

1 0 0 0 120 120 120
2 0 0 0 120 120 118.9
3 0 0 0 118.9 117.94 117.94
4 0 0 0 120 120 118.9
5 0 0 0 118.9 118.9 118.9
6 0 0 0 120 120 120
7 0 0 0 120 122 122
8 0 0 0 122 122 122

Atoms # full

1389 3 7 -1.2680000000000000e-01 6.4765501231785425e+00 5.3358985846420390e+00 3.5130483885661340e-01 0 0 1
1391 3 7 0.0000000000000000e+00 5.1842054425450641e+00 5.9428338551835145e+00 3.4930611032446462e-01 0 0 1
1392 3 7 0.0000000000000000e+00 4.0863465052539256e+00 5.3901185497259618e+00 1.1207330824851855e+00 0 0 1
1393 3 7 -1.2680000000000000e-01 4.0885058880795127e+00 4.0320548269334147e+00 1.5595060009426329e+00 0 0 1
1394 3 7 -1.2680000000000000e-01 2.9396966435496221e+00 6.1579379455421117e+00 1.4843285144137981e+00 0 0 1
1395 3 7 -1.2680000000000000e-01 3.0404001864378625e+00 3.4928509625799165e+00 2.2667232658887579e+00 0 0 1
1396 3 7 -1.2680000000000000e-01 1.8919366881513398e+00 5.6045395660880031e+00 2.1868143896438541e+00 0 0 1
1397 3 7 0.0000000000000000e+00 1.9056986978268406e+00 4.2574349813176662e+00 2.5936082675892904e+00 0 0 1
1398 3 2 3.5830000000000001e-01 6.7985272472502856e-01 2.3518938036916146e+00 3.7273713571216254e+00 0 0 1
7731 7 5 4.3950000000000000e-01 1.7755134589005756e+01 1.5338959186067493e+01 1.5824566900268325e+01 0 0 0
6382 3 3 1.2680000000000000e-01 6.6682023317600700e+00 4.4437968171930358e+00 9.6396393531625035e-01 0 0 1
6386 3 3 1.2680000000000000e-01 3.1259590293962605e+00 2.4341712255655494e+00 2.5519612327453927e+00 0 0 1
6387 3 3 1.2680000000000000e-01 1.0409812940200083e+00 6.2569470267947320e+00 2.4250380510791141e+00 0 0 1
8654 9 3 1.2680000000000000e-01 7.6922405123068156e+00 2.1089614079848275e+01 3.8732223942613055e+00 1 0 0
7887 7 3 1.2680000000000000e-01 1.8306950853209425e+00 7.4265998347217699e-01 7.0509414883011887e+00 0 0 0
9375 3 1 -4.3950000000000000e-01 7.6956483275457843e-01 3.6938521994218805e+00 3.2689328358056708e+00 0 0 1
10370 10 4 -3.5830000000000001e-01 5.5179645839080305e+00 9.7006282970985647e-01 1.2854738531913363e+00 1 1 1
2619 5 7 0.0000000000000000e+00 1.9862668912589569e+01 3.1530983274509267e-01 1.0466869097579751e+01 0 0 0
4989 10 2 3.5830000000000001e-01 1.2382102257471491e+01 9.2570175472645233e-01 2.3543279926315521e+00 1 1 1
4990 10 7 0.0000000000000000e+00 1.0989804857396633e+01 5.7033947347173730e-01 1.8532520967386850e+00 1 1 1
4991 10 7 -1.2680000000000000e-01 9.8811167684845120e+00 1.3969696102365561e+00 2.1294189506695171e+00 1 1 1
4993 10 7 -1.2680000000000000e-01 8.6296746597265095e+00 1.1349910182024199e+00 1.5917042546910565e+00 1 1 1
5199 10 7 0.0000000000000000e+00 3.2496580038627933e+01 4.7283593518684857e+00 2.3138682014863683e+00 0 1 1
7252 5 5 4.3950000000000000e-01 1.7783851508162737e+01 1.9608277945344507e-01 1.0800292239356308e+01 0 0 0
4942 10 2 3.5830000000000001e-01 6.0250082234447593e+00 5.6471475191294873e-01 9.8863550031508027e-02 1 1 1
8930 10 3 1.2680000000000000e-01 9.9999221342590356e+00 2.2875305353922171e+00 2.7661794392372219e+00 1 1 1
8932 10 3 1.2680000000000000e-01 7.8145178397975306e+00 1.8331882040877649e+00 1.8293242615417193e+00 1 1 1
10375 10 4 -3.5830000000000001e-01 1.2786229162227631e+01 2.2160914085368510e+00 2.3001829852541986e+00 1 1 1
2608 5 7 -1.2680000000000000e-01 2.4067973448176172e+01 3.6964184135088787e+00 4.4404709028647931e+00 0 0 0
2610 5 7 -1.2680000000000000e-01 2.3412118805828428e+01 2.5987259289450986e+00 4.9511603409705085e+00 0 0 0
2612 5 7 0.0000000000000000e+00 2.3981548921498987e+01 1.8041121295343514e+00 5.9620928282123158e+00 0 0 0
2613 5 2 3.5830000000000001e-01 2.3365710699716423e+01 2.1287237403012826e-01 7.8664845326847539e+00 0 0 0
2616 5 7 -1.2680000000000000e-01 2.2257891062318372e+01 5.9503654100858239e-01 1.0122112851422388e+01 0 0 0
7242 5 3 1.2680000000000000e-01 2.3873053938964500e+01 6.3925457219275925e+00 4.4091262794534991e+00 0 0 0
7243 5 3 1.2680000000000000e-01 2.3534092857786952e+01 4.3372386891903076e+00 3.7229564192642495e+00 0 0 0
7245 5 3 1.2680000000000000e-01 2.2397973485726762e+01 2.3922292892399155e+00 4.5801632832180079e+00 0 0 0
7249 5 3 1.2680000000000000e-01 2.3226095755268840e+01 9.2953737777293244e-01 1.0526364373872509e+01 0 0 0
2604 5 7 -1.2680000000000000e-01 2.7198430731426409e+01 5.7748431308763166e+00 5.0085692853729586e+00 0 0 0
2605 5 7 -1.2680000000000000e-01 2.4945530056422001e+01 6.5606222821067099e+00 4.5879905284435063e+00 0 0 0
2606 5 7 0.0000000000000000e+00 2.5833919218301276e+01 5.4492369320567304e+00 4.7587470695734186e+00 0 0 0
2607 5 7 0.0000000000000000e+00 2.5338852665828295e+01 4.0988237654704163e+00 4.9392436764601202e+00 0 0 0
2609 5 7 -1.2680000000000000e-01 2.5966073058318933e+01 3.1969446870262725e+00 5.8556375435377506e+00 0 0 0
2611 5 7 -1.2680000000000000e-01 2.5293883823319991e+01 2.1091419768765736e+00 6.3694522179599105e+00 0 0 0
5196 10 7 -1.2680000000000000e-01 3.1009653223166715e+01 3.8638048055095626e+00 4.7892771415103402e-01 0 1 1
7271 5 5 4.3950000000000000e-01 3.0420971618984140e+01 1.6876193820394210e+01 7.4977080070654756e+00 0 0 0
5201 10 7 -1.2680000000000000e-01 3.1492985341320665e+01 4.5911468731900422e+00 3.3178000188535841e+00 0 1 1
5203 10 7 -1.2680000000000000e-01 3.1550613762355106e+01 5.2962962544852763e+00 4.4955513172671910e+00 0 1 1
7247 5 5 4.3950000000000000e-01 2.2229575785122400e+01 7.3503118613181417e-01 6.2563024708321464e+00 0 0 0
7241 5 3 1.2680000000000000e-01 2.7936076071937972e+01 4.9696768137046163e+00 5.1347800717557748e+00 0 0 0
7244 5 3 1.2680000000000000e-01 2.6942190273969338e+01 3.4434876213389809e+00 6.2964050995484113e+00 0 0 0
7246 5 3 1.2680000000000000e-01 2.5822482465862205e+01 1.5060640321923255e+00 7.1197051120643371e+00 0 0 0
9075 10 3 1.2680000000000000e-01 3.0119006224767588e+01 4.0330948419764701e+00 1.1010040681699458e+00 0 1 1
9078 10 3 1.2680000000000000e-01 3.0611224261924612e+01 3.9624478866800561e+00 3.1366613552538052e+00 0 1 1
9080 10 3 1.2680000000000000e-01 3.0720379506434760e+01 5.1785400314083905e+00 5.2056451950183789e+00 0 1 1
5204 10 7 0.0000000000000000e+00 3.2628966586801603e+01 6.1455558482330019e+00 4.7899530571253131e+00 0 1 1
1466 3 2 3.5830000000000001e-01 3.4055798274219953e+00 1.4849659671557369e+01 3.8652987797140583e+00 0 0 1
6385 3 3 1.2680000000000000e-01 2.8852130495114103e+00 7.2204454523128483e+00 1.2069222180585908e+00 0 0 1
6435 3 3 1.2680000000000000e-01 4.4957949154321488e+00 1.5015743922159412e+01 1.3365199798137020e+00 0 0 1
6436 3 5 4.3950000000000000e-01 3.2691910040023813e+00 1.4642292754070180e+01 5.8641814953486477e+00 0 0 1
9984 3 4 -3.5830000000000001e-01 3.9467996001627896e+00 1.3613758533748484e+01 3.8236518008776303e+00 0 0 1
7885 7 3 1.2680000000000000e-01 3.9051275549027182e+00 5.0157841049579521e-01 8.3073172757126095e+00 0 0 0
5428 1 3 1.2680000000000000e-01 1.3949303699185361e+01 9.4881398678240263e+00 9.0679518738596609e+00 0 0 1
9825 1 4 -3.5830000000000001e-01 2.0057075473376241e+01 1.2248403372613664e+01 9.0349816433411245e+00 0 0 1
2594 5 7 0.0000000000000000e+00 2.8524005836248378e+01 1.4072829237419969e+01 7.3385905199396495e+00 0 0 0
2595 5 7 -1.2680000000000000e-01 2.8671680753649962e+01 1.3614457191598500e+01 6.0141454702252846e+00 0 0 0
2596 5 7 -1.2680000000000000e-01 2.7644035492624916e+01 1.3365415917953557e+01 8.1801372491980722e+00 0 0 0
2597 5 7 -1.2680000000000000e-01 2.7970911035500730e+01 1.2512676223657085e+01 5.5552579448745112e+00 0 0 0
2598 5 7 -1.2680000000000000e-01 2.6937965296634882e+01 1.2268545423070133e+01 7.7198861002221157e+00 0 0 0
2599 5 7 0.0000000000000000e+00 2.7085011961639221e+01 1.1810493096865274e+01 6.3966435976738572e+00 0 0 0
2600 5 2 3.5830000000000001e-01 2.6357545894311414e+01 1.0575954548550220e+01 5.9157892917795500e+00 0 0 0
2601 5 7 0.0000000000000000e+00 2.6686845349548989e+01 8.1390323911303035e+00 5.1945419158428923e+00 0 0 0
2602 5 7 -1.2680000000000000e-01 2.7597450807163426e+01 7.0708983618088537e+00 5.2391734572151467e+00 0 0 0
2603 5 7 -1.2680000000000000e-01 2.5360150330162060e+01 7.8552773535230909e+00 4.8194755960082922e+00 0 0 0
7234 5 3 1.2680000000000000e-01 2.9359564650586016e+01 1.4124090541809851e+01 5.3227817251098122e+00 0 0 0
7236 5 3 1.2680000000000000e-01 2.8122166772015877e+01 1.2194314734625120e+01 4.5129945597999521e+00 0 0 0
7237 5 3 1.2680000000000000e-01 2.6267468544894179e+01 1.1741095273370265e+01 8.4167224940366800e+00 0 0 0
7238 5 5 4.3950000000000000e-01 2.8101781660741118e+01 9.5369590053150457e+00 5.8302038245493266e+00 0 0 0
7239 5 3 1.2680000000000000e-01 2.8651051865821714e+01 7.2462561995747556e+00 5.4970579517055418e+00 0 0 0
7240 5 3 1.2680000000000000e-01 2.4610535306451833e+01 8.6535508538296977e+00 4.7113453249895727e+00 0 0 0
10181 7 4 -3.5830000000000001e-01 1.6765301255168474e+01 1.6168436473040387e+01 1.3842068237155527e+01 0 0 0
9081 10 5 4.3950000000000000e-01 3.1713506943898544e+01 7.0332813264536007e+00 6.4714028173853944e+00 0 1 1
9509 5 1 -4.3950000000000000e-01 2.7136700761572644e+01 9.4482739447119908e+00 5.5620063490409164e+00 0 0 0
10110 5 4 -3.5830000000000001e-01 2.5038353435306497e+01 1.0451128018046317e+01 6.1896155487988560e+00 0 0 0
8102 8 3 1.2680000000000000e-01 1.6926347378142282e+01 1.9823601738482746e+00 1.6468955922519218e+01 1 0 0
1460 3 7 0.0000000000000000e+00 1.6742523994934484e+00 1.6626217708944967e+01 2.8116814283546987e-01 0 0 1
1461 3 7 -1.2680000000000000e-01 9.4657033544019675e-01 1.6570520480038077e+01 1.4846159878496235e+00 0 0 1
1462 3 7 -1.2680000000000000e-01 2.9527283781061495e+00 1.6036093621313281e+01 2.6154820001486045e-01 0 0 1
1463 3 7 -1.2680000000000000e-01 1.4792116460009961e+00 1.5980456313878340e+01 2.6174354865221896e+00 0 0 1
1464 3 7 -1.2680000000000000e-01 3.4883238104003840e+00 1.5454245979648771e+01 1.3976322488473207e+00 0 0 1
1465 3 7 0.0000000000000000e+00 2.7806858030973309e+00 1.5439072455449889e+01 2.6151008644443103e+00 0 0 1
1467 3 7 0.0000000000000000e+00 3.0257234706154708e+00 1.6731084033013403e+01 5.5861474648205025e+00 0 0 1
1468 3 7 -1.2680000000000000e-01 3.1763992394118392e+00 1.7826729426723482e+01 4.7118892025865922e+00 0 0 1
1469 3 7 -1.2680000000000000e-01 2.7405275380658245e+00 1.7007894945902333e+01 6.9360850377506136e+00 0 0 1
1470 3 7 -1.2680000000000000e-01 3.0157840234449957e+00 1.9124509215000547e+01 5.1464672689748365e+00 0 0 1
1471 3 7 -1.2680000000000000e-01 2.5933731670749141e+00 1.8295135241043457e+01 7.3990634895708745e+00 0 0 1
1472 3 7 0.0000000000000000e+00 2.7168771263618265e+00 1.9426470320365613e+01 6.5208868506167184e+00 0 0 1
1473 3 7 0.0000000000000000e+00 2.5745250766187660e+00 2.0767899708953561e+01 6.9976585910254334e+00 0 0 1
1474 3 7 -1.2680000000000000e-01 1.7177227493080875e+00 2.1724368132054920e+01 6.3542622882785862e+00 0 0 1
1475 3 7 -1.2680000000000000e-01 3.2826588066915083e+00 2.1242368437799090e+01 8.1539459798514855e+00 0 0 1
7265 5 3 1.2680000000000000e-01 2.4303865662287414e+01 1.7373905068329549e+01 4.3651605592822051e-01 0 0 0
6434 3 3 1.2680000000000000e-01 8.6834849169994310e-01 1.5965103848989429e+01 3.5323638413570140e+00 0 0 1
6437 3 3 1.2680000000000000e-01 3.4523685975519047e+00 1.7686036644192086e+01 3.6576274793112784e+00 0 0 1
6438 3 3 1.2680000000000000e-01 2.6221589252759321e+00 1.6190873791607345e+01 7.6626920227909485e+00 0 0 1
6439 3 3 1.2680000000000000e-01 3.1457468197201126e+00 1.9955330805789476e+01 4.4355422939506033e+00 0 0 1
6440 3 3 1.2680000000000000e-01 2.3624621419908518e+00 1.8472525938725500e+01 8.4605730470164620e+00 0 0 1
6441 3 3 1.2680000000000000e-01 1.1370103254998019e+00 2.1412180592285843e+01 5.4722906700057106e+00 0 0 1
6442 3 3 1.2680000000000000e-01 3.9726885183999654e+00 2.0560039611031332e+01 8.6753299221830744e+00 0 0 1
8652 9 5 4.3950000000000000e-01 6.7736380275129937e+00 2.1432598694033192e+01 6.1003257706456324e+00 1 0 0
9383 3 1 -4.3950000000000000e-01 3.1945392194643611e+00 1.5362017377024506e+01 5.1659096580798352e+00 0 0 1
10106 5 4 -3.5830000000000001e-01 1.7127979163884884e+01 1.3294694839917807e+00 1.2776796434321870e+01 0 0 0
2639 5 7 0.0000000000000000e+00 2.4917292199411797e+01 1.9329298241250449e+01 1.1940914655545216e+00 0 0 0
7267 5 3 1.2680000000000000e-01 2.5762555741493198e+01 1.7069700613632531e+01 4.6208081910966055e+00 0 0 0
10114 5 4 -3.5830000000000001e-01 2.7021205145519534e+01 2.0636488599996149e+01 2.8825843640254338e+00 0 0 0
2593 5 2 3.5830000000000001e-01 2.9327372504401275e+01 1.5238686474836340e+01 7.8764070078914727e+00 0 0 0
2637 5 7 -1.2680000000000000e-01 2.4845086455264365e+01 2.0713370467315571e+01 9.3199647321563017e-01 0 0 0
2640 5 2 3.5830000000000001e-01 2.6548058373381039e+01 1.9401549774632340e+01 3.1908538349439817e+00 0 0 0
2641 5 7 0.0000000000000000e+00 2.7309109102853114e+01 1.8579240176282227e+01 4.2257115592764327e+00 0 0 0
2642 5 7 -1.2680000000000000e-01 2.6779400222353015e+01 1.7423111332060305e+01 4.8435270334344098e+00 0 0 0
2643 5 7 -1.2680000000000000e-01 2.8606939408315881e+01 1.8962923395856581e+01 4.6150637909282386e+00 0 0 0
2644 5 7 -1.2680000000000000e-01 2.7506826721222382e+01 1.6704983238859107e+01 5.7852465870765837e+00 0 0 0
2645 5 7 -1.2680000000000000e-01 2.9329796419282587e+01 1.8248423713991055e+01 5.5522853409910153e+00 0 0 0
2646 5 7 0.0000000000000000e+00 2.8806064121570049e+01 1.7098917525164630e+01 6.1615678813331529e+00 0 0 0
6036 2 3 1.2680000000000000e-01 2.8382401459843347e+01 2.0100016321120467e+01 5.9442168078916102e-01 0 0 0
7264 5 3 1.2680000000000000e-01 2.5252985417595536e+01 2.1455051663756869e+01 1.6316788050858542e+00 0 0 0
7266 5 5 4.3950000000000000e-01 2.5502139722961136e+01 1.7782915318176443e+01 2.4724508740252911e+00 0 0 0
7268 5 3 1.2680000000000000e-01 2.9072990313571125e+01 1.9859049271132470e+01 4.1763138253370098e+00 0 0 0
7269 5 3 1.2680000000000000e-01 2.7012204893591541e+01 1.5840227579658928e+01 6.2484940359882977e+00 0 0 0
7270 5 3 1.2680000000000000e-01 3.0334102286184542e+01 1.8617342617312371e+01 5.8046401864922990e+00 0 0 0
9513 5 1 -4.3950000000000000e-01 2.5601537513119581e+01 1.8770962480411935e+01 2.3338951236799499e+00 0 0 0
9514 5 1 -4.3950000000000000e-01 2.9589565095472125e+01 1.6423420680979756e+01 7.1577874250996754e+00 0 0 0
10109 5 4 -3.5830000000000001e-01 3.0142640558885667e+01 1.5041698593897820e+01 8.9340895771087592e+00 0 0 0
8656 9 3 1.2680000000000000e-01 9.2756284552316330e+00 2.1757275695176851e+01 2.1452099828697793e+00 1 0 0
7916 7 5 4.3950000000000000e-01 3.4415073349950847e+00 1.9469989186913026e+00 1.5494493359910560e+01 0 0 0
7918 7 3 1.2680000000000000e-01 2.2150662238321868e+00 7.5030359696365467e-01 1.3500525580344860e+01 0 0 0
9615 7 1 -4.3950000000000000e-01 3.0077740681901841e+00 1.4579065062481980e+00 1.6257445840105447e+01 0 0 0
44 1 7 -1.2680000000000000e-01 1.3806611083876369e+01 8.9184055434634075e+00 1.3101699500921129e+01 0 0 1
46 1 7 -1.2680000000000000e-01 1.2813818977079130e+01 8.3386728264452561e+00 1.3855675552774693e+01 0 0 1
47 1 7 0.0000000000000000e+00 1.1501190351493710e+01 8.2089898274713065e+00 1.3360231123645679e+01 0 0 1
48 1 2 3.5830000000000001e-01 1.0517887784106765e+01 7.6824713150856843e+00 1.5578220634998704e+01 0 0 1
76 1 7 0.0000000000000000e+00 1.6250870148420351e+01 2.1761824225732404e+01 1.4138363683051249e+01 0 0 1
5431 1 3 1.2680000000000000e-01 1.4806534292774648e+01 9.0351325245726333e+00 1.3544119195615306e+01 0 0 1
5433 1 3 1.2680000000000000e-01 1.3073706808530908e+01 8.0155491557901168e+00 1.4874033859072032e+01 0 0 1
5434 1 5 4.3950000000000000e-01 9.5042114797822439e+00 7.9321138414318026e+00 1.3813487652412716e+01 0 0 1
7468 6 5 4.3950000000000000e-01 1.2763944671479569e+01 1.7335624248786782e-01 1.4210026156637060e+01 0 1 0
7469 6 3 1.2680000000000000e-01 1.5141220634913742e+01 7.4272062805041683e-01 1.4653709079138022e+01 0 1 0
8100 8 3 1.2680000000000000e-01 1.4978836667715491e+01 3.3027055283631710e+00 1.5887948297528121e+01 1 0 0
9225 1 1 -4.3950000000000000e-01 1.0419991751967325e+01 7.7455112361840506e+00 1.4176162697009600e+01 0 0 1
9826 1 4 -3.5830000000000001e-01 1.1185014507508257e+01 6.6468054655114175e+00 1.6147831677096384e+01 0 0 1
2567 5 7 0.0000000000000000e+00 1.9505097000505820e+01 1.4573961438286867e+00 1.3462290934831620e+01 0 0 0
2568 5 7 -1.2680000000000000e-01 2.0131754779063030e+01 4.4052291192293763e-01 1.4206008477617727e+01 0 0 0
2569 5 7 -1.2680000000000000e-01 1.9918120856647104e+01 2.7834682021139088e+00 1.3687126241201170e+01 0 0 0
2570 5 7 -1.2680000000000000e-01 2.1140861764142429e+01 7.3097784297310486e-01 1.5105444020978686e+01 0 0 0
2571 5 7 -1.2680000000000000e-01 2.0926971453185992e+01 3.0722319894245009e+00 1.4590141195526840e+01 0 0 0
2572 5 7 0.0000000000000000e+00 2.1575012739706317e+01 2.0562248989165139e+00 1.5323912285025999e+01 0 0 0
2573 5 2 3.5830000000000001e-01 2.2659532180144371e+01 2.3916297457586211e+00 1.6337274035323318e+01 0 0 0
2618 5 7 -1.2680000000000000e-01 2.1138092706058014e+01 6.9110026989095896e-01 1.0932497639330053e+01 0 0 0
9976 3 4 -3.5830000000000001e-01 1.7174408940773289e+00 1.8064732360924340e+00 4.4080392276166869e+00 0 0 1
3280 7 7 -1.2680000000000000e-01 2.3971668789788453e+01 7.6755402956010483e+00 1.2128861466015049e+01 0 0 0
7216 5 3 1.2680000000000000e-01 1.9448005558849580e+01 3.6137398135896737e+00 1.3137072563528285e+01 0 0 0
8264 8 3 1.2680000000000000e-01 4.3362398576447270e-01 8.7121732087559500e-01 3.3264744108072852e-01 1 0 0
7218 5 3 1.2680000000000000e-01 2.1211143293842376e+01 4.1280031073077925e+00 1.4731086896452659e+01 0 0 0
7251 5 3 1.2680000000000000e-01 2.1317114189507990e+01 1.0915889685481945e+00 1.1934423073538097e+01 0 0 0
10399 10 4 -3.5830000000000001e-01 3.3014734336030109e+01 8.9388738241695460e+00 6.9915060833004183e+00 0 1 1
9229 1 1 -4.3950000000000000e-01 1.8708369274433075e+01 1.8331015733251260e+01 1.3415416152093526e+01 0 0 1
7721 7 3 1.2680000000000000e-01 2.3065634345757925e+01 7.0503365479997893e+00 1.2144112927624281e+01 0 0 0
7723 7 3 1.2680000000000000e-01 2.3820344828199900e+01 6.8231744089653272e+00 1.5218369215001150e+01 0 0 0
5198 10 7 0.0000000000000000e+00 3.2310234405138850e+01 4.1825165784323213e+00 9.8064249235488210e-01 0 1 1
8929 10 5 4.3950000000000000e-01 1.4280645996758018e+01 3.1958773309909100e-01 1.9317309948496248e+00 1 1 1
5458 1 5 4.3950000000000000e-01 1.9389134081744547e+01 1.8112864699238074e+01 1.4117911275259738e+01 0 0 1
9586 7 1 -4.3950000000000000e-01 1.7455120815860226e+01 1.4532121503795871e+01 1.5301353331560071e+01 0 0 0
2614 5 7 0.0000000000000000e+00 2.2169145180481237e+01 1.4035659754099272e-01 8.7942682847247120e+00 0 0 0
3276 7 7 0.0000000000000000e+00 2.6045183145293851e+01 8.3378670928970244e+00 1.1039287424139216e+01 0 0 0
3278 7 7 -1.2680000000000000e-01 2.4870691571455076e+01 7.5650832400566292e+00 1.1098177118328174e+01 0 0 0
2566 5 2 3.5830000000000001e-01 1.8425516539019394e+01 1.1330346347555300e+00 1.2457289559702376e+01 0 0 0
7219 5 5 4.3950000000000000e-01 2.3742937633734776e+01 6.3746472902098361e-01 1.6144559248223889e+01 0 0 0
7716 7 3 1.2680000000000000e-01 2.8741265790197765e+01 7.3380696175225610e+00 1.1884081098525005e+01 0 0 0
7717 7 5 4.3950000000000000e-01 2.6517320316574580e+01 7.7349052203809308e+00 9.0840621845907030e+00 0 0 0
7719 7 3 1.2680000000000000e-01 2.4637248709255932e+01 6.8415562648309383e+00 1.0303125636574402e+01 0 0 0
9054 10 3 1.2680000000000000e-01 3.2174750355956505e+01 1.3854870369986483e+00 1.6362300051944175e+01 0 1 1
9584 7 1 -4.3950000000000000e-01 2.6902945860833356e+01 8.2053590292872745e+00 9.8876864727570624e+00 0 0 0
10185 7 4 -3.5830000000000001e-01 2.8392865694260117e+01 8.8994069744320985e+00 8.2496757568550638e+00 0 0 0
6384 3 3 1.2680000000000000e-01 4.9329150681486942e+00 3.3741533635773204e+00 1.3167021438624016e+00 0 0 1
3250 7 7 -1.2680000000000000e-01 7.8593530682339514e+00 1.3596018011318328e+01 1.2022969992708161e+01 0 0 0
3251 7 7 -1.2680000000000000e-01 8.7220171185145130e+00 1.2884473944211914e+01 1.4164945811797534e+01 0 0 0
3252 7 7 -1.2680000000000000e-01 6.5692377604677032e+00 1.3419905181276485e+01 1.2475117004116886e+01 0 0 0
3253 7 7 -1.2680000000000000e-01 7.4413407840087595e+00 1.2723749529694457e+01 1.4631060557971235e+01 0 0 0
3254 7 7 0.0000000000000000e+00 6.3001800110995445e+00 1.2931212111087870e+01 1.3799548847464942e+01 0 0 0
3255 7 7 0.0000000000000000e+00 4.9888089355511118e+00 1.2598494344221136e+01 1.4283870251234076e+01 0 0 0
3256 7 7 -1.2680000000000000e-01 4.8043233641267316e+00 1.1512649175310363e+01 1.5192995817690750e+01 0 0 0
3257 7 7 -1.2680000000000000e-01 3.8373868218235612e+00 1.3409025419914760e+01 1.4026533194965413e+01 0 0 0
3258 7 7 -1.2680000000000000e-01 3.6258201087503514e+00 1.1345910884893247e+01 1.5874432044901992e+01 0 0 0
3259 7 7 -1.2680000000000000e-01 2.6598596093053737e+00 1.3220495078621489e+01 1.4723791541281996e+01 0 0 0
3260 7 7 0.0000000000000000e+00 2.5335409571084462e+00 1.2199781958151858e+01 1.5686389845198519e+01 0 0 0
9510 5 1 -4.3950000000000000e-01 2.3175233843349158e+01 7.9107053730095855e-01 6.5833636889129750e+00 0 0 0
7700 7 3 1.2680000000000000e-01 5.7180646355806735e+00 1.3574702117792485e+01 1.1789343737840067e+01 0 0 0
7701 7 3 1.2680000000000000e-01 7.3029821372335499e+00 1.2391378417911389e+01 1.5669176814068656e+01 0 0 0
7702 7 3 1.2680000000000000e-01 5.6652886654153845e+00 1.0858502216188535e+01 1.5423070600999759e+01 0 0 0
7703 7 3 1.2680000000000000e-01 3.9272839066615433e+00 1.4256529938685254e+01 1.3327910324473169e+01 0 0 0
9511 5 1 -4.3950000000000000e-01 1.8650994196044714e+01 4.7254829702746365e-01 1.1228261253351505e+01 0 0 0
7705 7 3 1.2680000000000000e-01 1.8418605835303101e+00 1.3902508581936354e+01 1.4476119722553285e+01 0 0 0
9582 7 1 -4.3950000000000000e-01 1.3698320017215284e+00 1.2003033629512556e+01 1.6505806526229705e+01 0 0 0
38 1 7 -1.2680000000000000e-01 1.6491187562134549e+01 1.1649321922891490e+01 1.1072047986007689e+01 0 0 1
39 1 7 -1.2680000000000000e-01 1.4649108264041287e+01 1.0115964109837877e+01 9.6397367355894357e+00 0 0 1
40 1 7 -1.2680000000000000e-01 1.5472619073121383e+01 1.1015229653943218e+01 1.1743251739235086e+01 0 0 1
41 1 7 0.0000000000000000e+00 1.4528102477186529e+01 1.0183999207971597e+01 1.1064360416648045e+01 0 0 1
42 1 7 0.0000000000000000e+00 1.3543761716220201e+01 9.4238463271605557e+00 1.1789330085388807e+01 0 0 1
43 1 7 -1.2680000000000000e-01 1.2226157717379007e+01 9.2087387115896888e+00 1.1272909973116461e+01 0 0 1
45 1 7 -1.2680000000000000e-01 1.1244306373832551e+01 8.6340192257842077e+00 1.2044937907106016e+01 0 0 1
49 1 7 0.0000000000000000e+00 1.0087290693857492e+01 8.8863676108166949e+00 1.6384502765165465e+01 0 0 1
77 1 7 -1.2680000000000000e-01 1.7211949142690884e+01 2.1331004912433386e+01 1.5076823678878160e+01 0 0 1
2638 5 7 -1.2680000000000000e-01 2.4299536788636228e+01 1.8460991652036718e+01 2.7577350912257231e-01 0 0 0
3241 7 2 3.5830000000000001e-01 1.6650796709505514e+01 1.4880352954096670e+01 1.4194393711541604e+01 0 0 0
3243 7 7 -1.2680000000000000e-01 1.4589095413067431e+01 1.3469204919194242e+01 1.4776264425018638e+01 0 0 0
3245 7 7 -1.2680000000000000e-01 1.3339269402373770e+01 1.2981415311300371e+01 1.4458793003601963e+01 0 0 0
3248 7 2 3.5830000000000001e-01 1.1368716677951772e+01 1.2646592026027776e+01 1.2917608779190049e+01 0 0 0
3249 7 7 0.0000000000000000e+00 8.9740095706511518e+00 1.3310370659891777e+01 1.2843526223480282e+01 0 0 0
5425 1 5 4.3950000000000000e-01 1.7968344815554094e+01 1.1665963544990404e+01 8.0727641282738691e+00 0 0 1
5427 1 3 1.2680000000000000e-01 1.7208076183591288e+01 1.2231207621077170e+01 1.1666422356799682e+01 0 0 1
5429 1 3 1.2680000000000000e-01 1.5389819340937830e+01 1.1124702041360257e+01 1.2832809999739606e+01 0 0 1
5430 1 3 1.2680000000000000e-01 1.1965803651301924e+01 9.5950840370915902e+00 1.0278436079892467e+01 0 0 1
5432 1 3 1.2680000000000000e-01 1.0233355351478670e+01 8.5681648527683407e+00 1.1619890828131483e+01 0 0 1
5435 1 3 1.2680000000000000e-01 1.1928720523630192e+01 9.9861247368589385e+00 1.6020260269667038e+01 0 0 1
7693 7 3 1.2680000000000000e-01 1.4971459016134867e+01 1.3293142801173108e+01 1.5792644246041705e+01 0 0 0
7695 7 3 1.2680000000000000e-01 1.2791065390524608e+01 1.2407198127816731e+01 1.5218352159665944e+01 0 0 0
7698 7 3 1.2680000000000000e-01 7.9974720754295898e+00 1.3901856463583206e+01 1.0969967376655681e+01 0 0 0
7699 7 3 1.2680000000000000e-01 9.5386391771675587e+00 1.2691267555760156e+01 1.4865643217806923e+01 0 0 0
9581 7 1 -4.3950000000000000e-01 1.0322122992642472e+01 1.3449326276116693e+01 1.2378227831851152e+01 0 0 0
10182 7 4 -3.5830000000000001e-01 1.1057891476419417e+01 1.1435484816539438e+01 1.3434414276356033e+01 0 0 0
35 1 2 3.5830000000000001e-01 1.8887060715431140e+01 1.2662581316914606e+01 9.5666468948075600e+00 0 0 1
36 1 7 0.0000000000000000e+00 1.6637424725412171e+01 1.1512410892297055e+01 9.6803850817979953e+00 0 0 1
37 1 7 -1.2680000000000000e-01 1.5682552564492402e+01 1.0746356582361726e+01 8.9854473324948003e+00 0 0 1
3282 7 7 0.0000000000000000e+00 2.3238597633826210e+01 8.7166027638591448e+00 1.4258639195389797e+01 0 0 0
3283 7 7 -1.2680000000000000e-01 2.2235489594768403e+01 9.7571412481659703e+00 1.4319764254434462e+01 0 0 0
3284 7 7 -1.2680000000000000e-01 2.3096398980930374e+01 7.6575907314406511e+00 1.5229295913369574e+01 0 0 0
3285 7 7 -1.2680000000000000e-01 2.1188538251746962e+01 9.6972657367869441e+00 1.5219258854148958e+01 0 0 0
3286 7 7 -1.2680000000000000e-01 2.2035949376607835e+01 7.6260645399515887e+00 1.6104276457063971e+01 0 0 0
3287 7 7 0.0000000000000000e+00 2.1054445514195542e+01 8.6315167113123952e+00 1.6131501539163590e+01 0 0 0
3291 7 7 -1.2680000000000000e-01 1.7880545964892917e+01 1.0811276350356017e+01 1.5615035910584053e+01 0 0 0
3293 7 7 -1.2680000000000000e-01 1.7519513901778243e+01 1.2048864536935648e+01 1.5099480716847955e+01 0 0 0
3294 7 7 0.0000000000000000e+00 1.7855596656384055e+01 1.3238307992909940e+01 1.5769106029656864e+01 0 0 0
5423 1 3 1.2680000000000000e-01 2.0868246637924820e+01 1.3769781209933459e+01 1.1093257352436011e+01 0 0 1