LAMMPS (22 Jul 2025)
units real
atom_style full
boundary p p p
pair_style lj/class2/coul/long 12.0 12.0
special_bonds  lj 0 0 1 coul 0 0 1
bond_style class2
angle_style class2
dihedral_style class2
improper_style class2
dielectric 1.0
kspace_style ewald 0.001
read_data lammps.data
Reading data file ...
  orthogonal box = (0 0 0) to (66.0372 66.0372 66.0372)
  2 by 4 by 4 MPI processor grid
  reading atoms ...
  10420 atoms
  reading velocities ...
  10420 velocities
  scanning bonds ...
  3 = max bonds/atom
  scanning angles ...
  3 = max angles/atom
  scanning dihedrals ...
  8 = max dihedrals/atom
  scanning impropers ...
  1 = max impropers/atom
  orthogonal box = (0 0 0) to (66.0372 66.0372 66.0372)
  2 by 4 by 4 MPI processor grid
  reading bonds ...
  11210 bonds
  reading angles ...
  18000 angles
  reading dihedrals ...
  27160 dihedrals
  reading impropers ...
  6000 impropers
Finding 1-2 1-3 1-4 neighbors ...
  special bond factors lj:    0        0        1       
  special bond factors coul:  0        0        1       
     3 = max # of 1-2 neighbors
     6 = max # of 1-3 neighbors
     9 = max # of special neighbors
  special bonds CPU = 0.002 seconds
  read_data CPU = 0.181 seconds
pair_modify  mix sixthpower
#element_type O H H H C N C

reset_timestep 0
min_style cg
minimize 1e-6 1e-6 2000 20000
Ewald initialization ...
  using 12-bit tables for long-range coulomb
  G vector (1/distance) = 0.10639548
  estimated absolute RMS force accuracy = 0.43020329
  estimated relative force accuracy = 0.0012955444
  KSpace vectors: actual max1d max3d = 61 3 171
                  kxmax kymax kzmax  = 3 3 3
Generated 21 of 21 mixed pair_coeff terms from sixthpower/sixthpower mixing rule
Neighbor list info ...
  update: every = 1 steps, delay = 0 steps, check = yes
  max neighbors/atom: 2000, page size: 100000
  master list distance cutoff = 14
  ghost atom cutoff = 14
  binsize = 7, bins = 10 10 10
  1 neighbor lists, perpetual/occasional/extra = 1 0 0
  (1) pair lj/class2/coul/long, perpetual
      attributes: half, newton on
      pair build: half/bin/newton
      stencil: half/bin/3d
      bin: standard
Per MPI rank memory allocation (min/avg/max) = 17.54 | 17.75 | 18.69 Mbytes
   Step          Temp          E_pair         E_mol          TotEng         Press     
         0   0             -11143.343      27003.236      15859.893     -689.99156    
        51   0             -11285.704      26759.584      15473.88      -774.57344    
Loop time of 0.689496 on 32 procs for 51 steps with 10420 atoms

95.1% CPU use with 32 MPI tasks x no OpenMP threads

Minimization stats:
  Stopping criterion = linesearch alpha is zero
  Energy initial, next-to-last, final = 
      15859.8925593639   15473.8802904011   15473.8802904011
  Force two-norm initial, final = 129.93108 100.4816
  Force max component initial, final = 10.973572 10.915305
  Final line search alpha, max atom move = 7.6483785e-13 8.3484384e-12
  Iterations, force evaluations = 51 165

MPI task timing breakdown:
Section |  min time  |  avg time  |  max time  |%varavg| %total
---------------------------------------------------------------
Pair    | 0.051639   | 0.17716    | 0.42917    |  22.4 | 25.69
Bond    | 0.029127   | 0.071049   | 0.12747    |   9.4 | 10.30
Kspace  | 0.031506   | 0.335      | 0.49771    |  20.0 | 48.59
Neigh   | 0.0065698  | 0.006641   | 0.0066765  |   0.0 |  0.96
Comm    | 0.071666   | 0.075725   | 0.079985   |   1.0 | 10.98
Output  | 0          | 0          | 0          |   0.0 |  0.00
Modify  | 0          | 0          | 0          |   0.0 |  0.00
Other   |            | 0.02392    |            |       |  3.47

Nlocal:        325.625 ave         569 max         136 min
Histogram: 3 2 6 4 5 2 6 2 0 2
Nghost:        4021.72 ave        4669 max        3236 min
Histogram: 1 2 4 3 7 3 2 1 4 5
Neighs:        76908.4 ave      184192 max       22275 min
Histogram: 5 5 7 2 5 5 1 0 0 2

Total # of neighbors = 2461070
Ave neighs/atom = 236.18714
Ave special neighs/atom = 5.6065259
Neighbor list builds = 2
Dangerous builds = 0


# ============================================
# Low-temperature equilibration (solid state)
# ============================================

timestep 1.0

velocity all create 300.0 928374 dist gaussian mom yes rot yes

fix EQ all npt temp 300.0 300.0 100.0 iso 1.0 1.0 1000.0

thermo_style custom step temp press pe etotal enthalpy vol density
thermo 1000

run 500000     # 500 ps
Ewald initialization ...
  using 12-bit tables for long-range coulomb
  G vector (1/distance) = 0.10639548
  estimated absolute RMS force accuracy = 0.43020329
  estimated relative force accuracy = 0.0012955444
  KSpace vectors: actual max1d max3d = 61 3 171
                  kxmax kymax kzmax  = 3 3 3
Generated 21 of 21 mixed pair_coeff terms from sixthpower/sixthpower mixing rule
Per MPI rank memory allocation (min/avg/max) = 16.42 | 16.65 | 17.57 Mbytes
   Step          Temp          Press          PotEng         TotEng        Enthalpy        Volume        Density    
        51   300            704.35954      15473.88       24790.998      27749.258      287982.4       0.50000605   
      1000   310.11516      123.77161      23146.04       32777.305      33252.347      263168.93      0.54715024   
      2000   301.86946     -340.47319      22659.378      32034.556      30797.115      249210.22      0.57779711   
      3000   299.16542     -55.497315      22364.448      31655.646      31465.194      235308.64      0.61193224   
      4000   299.45638     -454.83963      21941.485      31241.72       29755.945      223984.89      0.64286901   
      5000   303.23421     -84.868194      21623.586      31041.149      30777.95       212648.96      0.67713919   
      6000   298.40836     -522.7792       21449.575      30717.261      29159.934      204261.13      0.70494541   
      7000   302.60529      337.06694      21370.284      30768.314      31733.445      196333.43      0.73341024   
      8000   299.52402      279.14451      21163.948      30466.283      31238.129      189594.28      0.75947936   
      9000   295.42713      40.674915      20982.837      30157.936      30266.545      183090.33      0.78645848   
     10000   296.42736     -87.991192      20895.146      30101.308      29873.476      177541.16      0.81103981   
     11000   302.75931      453.87267      20740.693      30143.507      31290.892      173340.15      0.83069586   
     12000   301.35116     -356.29976      20637.42       29996.501      29114.023      169829.19      0.84786922   
     13000   299.71676     -64.746104      20609.682      29918.003      29763.863      163240.15      0.8820927    
     14000   301.44214     -51.382797      20373.929      29735.836      29615.304      160845.92      0.89522288   
     15000   303.50094      344.65588      20436.88       29862.727      30663.514      159314.52      0.90382815   
     16000   296.03135      74.523014      20518.968      29712.832      29884.674      158112         0.91070221   
     17000   298.70935     -711.47658      20305.184      29582.218      27958.627      156473.29      0.9202398    
     18000   299.28313     -1240.5333      20298.156      29593.01       26790.951      154879.13      0.92971172   
     19000   301.87808      888.50939      20207.427      29582.872      31575.602      153783.75      0.93633397   
     20000   303.93381     -382.28208      20152.532      29591.823      28742.378      152361.55      0.94507401   
     21000   300.71015      38.783018      20029.701      29368.874      29454.667      151682.33      0.94930601   
     22000   300.28659     -176.66532      19964.074      29290.092      28901.31       150896.66      0.95424875   
     23000   298.90402      145.92771      20134.348      29417.428      29736.956      150139.54      0.95906076   
     24000   307.09218     -960.34586      19968.171      29505.552      27400.905      150271.18      0.95822062   
     25000   299.89631     -160.66397      19928.042      29241.939      28886.152      151843.38      0.94829914   
     26000   301.65633     -294.07554      19836.363      29204.922      28560.875      150169.92      0.95886679   
     27000   299.76613      68.033542      19820.371      29130.226      29277.495      148426.9       0.97012703   
     28000   306.56674     -800.82992      19983.82       29504.882      27784.347      147315.06      0.97744889   
     29000   303.2779       677.78108      19752.498      29171.418      30631.177      147678.01      0.97504662   
     30000   295.30434     -182.65224      19670.338      28841.622      28451.125      146594.4       0.98225404   
     31000   299.86901      761.63977      19765.29       29078.34       30691.043      145187.45      0.99177268   
     32000   300.09343      531.10248      19837.405      29157.425      30283.611      145397.14      0.99034236   
     33000   300.36425     -334.14629      19787.302      29115.732      28406.936      145448.42      0.98999322   
     34000   303.11117     -421.10389      19596.335      29010.077      28111.285      146350.46      0.9838913    
     35000   299.73635     -798.6458       19680.732      28989.662      27294.365      145551.19      0.98929418   
     36000   300.66501      1078.3408      19786.42       29124.191      31384.934      143753.81      1.0016635    
     37000   297.06203     -423.99761      19758.136      28984.009      28093.004      144092.38      0.99930992   
     38000   299.59095     -374.55633      19903.999      29208.413      28410.011      146160.17      0.98517227   
     39000   298.49332     -819.16475      19714.501      28984.826      27251.635      145077.22      0.99252625   
     40000   298.56873      625.00925      19884.009      29156.676      30474.795      144607.99      0.99574682   
     41000   296.3483      -1249.8715      19661.414      28865.121      26243.696      143812.36      1.0012557    
     42000   303.69298     -467.93824      19725.799      29157.61       28168.242      144975.12      0.99322523   
     43000   300.53427      678.70259      19752.582      29086.293      30517.202      144562.83      0.99605785   
     44000   301.8096      -378.25883      19759.131      29132.45       28338.909      143848.12      1.0010068    
     45000   298.11898      468.40082      19742.289      29000.988      29986.942      144332.07      0.99765041   
     46000   302.39346      578.48726      19737.673      29129.125      30350.521      144772.67      0.99461412   
     47000   299.69428     -431.26077      19887.618      29195.241      28291.337      143716.38      1.0019244    
     48000   298.2913      -487.38352      19879.984      29144.035      28117.511      144418.42      0.99705389   
     49000   301.521        174.76643      19542.601      28906.956      29269.731      142332.14      1.0116685    
     50000   300.27281     -15.150025      19689.393      29014.984      28983.497      142510.78      1.0104004    
     51000   306.21959      182.48454      19698.765      29209.046      29591.007      143521.55      1.0032845    
     52000   297.7652      -721.48785      19863.358      29111.07       27589.384      144617.21      0.99568335   
     53000   298.8442       1.912241       19789.745      29070.967      29074.951      142869.94      1.0078603    
     54000   299.43531     -926.00954      19710.159      29009.739      27076.152      143176.69      1.005701     
     55000   302.13285      181.96095      19783.373      29166.731      29547.748      143578.69      1.0028852    
     56000   298.90329      92.195487      19657.128      28940.185      29132.794      143248.85      1.0051945    
     57000   298.5844       8.3890743      19711.518      28984.672      29002.082      142305.31      1.0118593    
     58000   302.87065      120.60175      19796.729      29203.001      29452.474      141838.34      1.0151906    
     59000   298.92327     -1072.5936      19635.642      28919.32       26672.357      143643.09      1.0024356    
     60000   303.92469      522.38346      19498.762      28937.769      30020.807      142160.35      1.0128911    
     61000   298.26319      714.39087      19620.756      28883.934      30358.587      141539.6       1.0173333    
     62000   298.43629      554.0635       19708.635      28977.188      30129.938      142659.15      1.0093495    
     63000   302.08476      342.28781      19825.527      29207.391      29921.577      143068.44      1.006462     
     64000   298.47992     -625.27307      19706.622      28976.53       27676.526      142560.54      1.0100477    
     65000   301.3111       165.91405      19632.673      28990.51       29338.038      143625.06      1.0025614    
     66000   297.01302      392.31429      19698.109      28922.461      29739.311      142768.53      1.0085762    
     67000   298.98046     -128.11998      19562.09       28847.544      28580.475      142932.09      1.0074221    
     68000   301.13677      819.82375      19750.25       29102.673      30803.125      142222.42      1.012449     
     69000   301.22893     -83.143738      19572.439      28927.724      28755.503      142030.22      1.0138191    
     70000   301.23865     -445.35813      19726.739      29082.326      28160.431      141937.16      1.0144838    
     71000   303.16572      354.75837      19715.852      29131.288      29863.656      141553.74      1.0172317    
     72000   300.02299      530.97824      19578.445      28896.277      29992.393      141548.11      1.0172721    
     73000   299.44312     -382.87472      19618.853      28918.676      28130.474      141157.82      1.0200848    
     74000   302.3421       294.0885       19850.469      29240.325      29851.226      142434.96      1.0109382    
     75000   299.68987     -316.62148      19561.169      28868.656      28210.997      142424.33      1.0110137    
     76000   297.46134      437.19823      19563.677      28801.952      29713.896      143025.7       1.0067628    
     77000   303.07389      202.35774      19710.087      29122.671      29540.167      141467.33      1.017853     
     78000   298.59243     -72.745116      19643.58       28916.983      28768.295      140150.45      1.027417     
     79000   303.83437      1368.6001      19500.461      28936.663      31750.266      140964.69      1.0214823    
     80000   303.28916      545.46237      19587.57       29006.84       30134.03       141695.64      1.0162129    
     81000   299.00055      163.09387      19589.114      28875.192      29210.728      141067.05      1.0207411    
     82000   299.59842      420.60917      19548.185      28852.831      29714.607      140488.28      1.0249463    
     83000   300.92742     -1426.5812      19704.053      29049.974      26130.817      140308.85      1.026257     
     84000   301.67394      783.2419       19564.327      28933.433      30539.387      140592.29      1.0241881    
     85000   300.81347     -961.47735      19698.928      29041.31       27079.733      139891.17      1.0293212    
     86000   298.82388      246.72647      19643.767      28924.358      29430.191      140577.41      1.0242965    
     87000   301.0862      -175.28124      19584.548      28935.4        28575.809      140668.92      1.0236301    
     88000   294.76065     -2.5305928      19599.99       28754.389      28749.189      140884.17      1.0220662    
     89000   297.94914     -17.502606      19584.74       28838.165      28802.554      139508.76      1.0321427    
     90000   300.1817      -1442.0492      19687.407      29010.169      26061.237      140219.62      1.0269101    
     91000   302.09013      784.53713      19502.32       28884.351      30497.91       141024.76      1.0210472    
     92000   302.39136      878.99578      19869.763      29261.15       31064.921      140708.02      1.0233457    
     93000   298.83593      1427.6903      19577.83       28858.795      31762.723      139468.44      1.032441     
     94000   298.43614     -272.96894      19508.827      28777.376      28220.352      139921.49      1.0290982    
     95000   299.27744      100.16555      19701.044      28995.721      29199.623      139581.52      1.0316046    
     96000   301.24963      585.94357      19505.748      28861.676      30054.361      139570.68      1.0316848    
     97000   302.36787      519.94458      19725.274      29115.931      30177.091      139942         1.0289473    
     98000   299.06903     -105.42855      19493.195      28781.4        28567.398      139182.14      1.0345648    
     99000   297.82026      265.62705      19466.022      28715.443      29253.183      138811.03      1.0373307    
    100000   302.21346      174.29942      19654.676      29040.537      29395.281      139554.07      1.0318076    
    101000   303.64324      1464.419       19437.078      28867.344      31837.616      139076.9       1.0353477    
    102000   296.6192      -124.04241      19516.175      28728.295      28475.926      139505.38      1.0321677    
    103000   298.93682     -724.00187      19473.261      28757.36       27280.746      139846.48      1.0296501    
    104000   301.16207     -376.72895      19574.409      28927.618      28161.144      139505.93      1.0321636    
    105000   300.12619      279.06516      19458.418      28779.455      29347.14       139484.28      1.0323238    
    106000   299.96303     -419.21015      19570.678      28886.648      28037.874      138830.24      1.0371871    
    107000   301.73566     -85.752538      19629.474      29000.497      28825.919      139593.73      1.0315145    
    108000   298.45026      1250.0083      19554.523      28823.51       31347.993      138478.91      1.0398186    
    109000   302.77514      452.09277      19665.706      29069.012      29989.161      139558.11      1.0317777    
    110000   300.42072     -796.20003      19504.924      28835.108      27219.747      139114.21      1.03507      
    111000   301.23978      35.259264      19629.534      28985.156      29056.232      138220.73      1.0417609    
    112000   301.78185      596.02304      19554.438      28926.895      30119.075      137152.17      1.0498772    
    113000   296.9972      -52.058701      19434.194      28658.053      28553.226      138071.97      1.0428833    
    114000   299.68097      859.18599      19582.63       28889.84       30625.973      138554.29      1.0392529    
    115000   299.09926     -107.5567       19584.565      28873.709      28657.487      137843.68      1.0446104    
    116000   297.63936     -59.590995      19342.945      28586.748      28466.97       137823.12      1.0447662    
    117000   298.84154      199.14522      19471.797      28752.936      29153.064      137769.5       1.0451728    
    118000   301.97711      185.68602      19642.877      29021.398      29392.434      137012.88      1.0509446    
    119000   302.15646      401.0284       19355.321      28739.412      29541.3        137107.91      1.0502162    
    120000   300.67122      373.01517      19374.613      28712.577      29460.291      137446.22      1.0476312    
    121000   302.50928      634.54271      19458.224      28853.273      30124.403      137357.69      1.0483064    
    122000   299.6263      -1110.5196      19552.179      28857.691      26633.555      137328.05      1.0485327    
    123000   302.20044      211.0918       19561.525      28946.982      29368.668      136975.05      1.0512348    
    124000   301.47914      903.39281      19431.842      28794.898      30596.606      136751.47      1.0529536    
    125000   297.37445     -451.79175      19430.192      28665.768      27760.439      137401.84      1.0479696    
    126000   299.66303      563.42144      19433.531      28740.184      29862          136525.1       1.0546994    
    127000   300.03271     -439.42193      19486.422      28804.556      27927.373      136877.7       1.0519825    
    128000   300.05471     -446.35431      19505.485      28824.302      27935.781      136493.48      1.0549438    
    129000   298.48866      841.60374      19543.943      28814.123      30494.152      136877.84      1.0519814    
    130000   299.5706      -442.36243      19551.799      28855.581      27969.347      137370.77      1.0482066    
    131000   301.57235      246.51033      19478.154      28844.104      29336.1        136851.7       1.0521823    
    132000   299.95138     -55.998906      19548.035      28863.643      28751.777      136975.59      1.0512307    
    133000   301.11812      555.35904      19666.794      29018.638      30119.076      135867.7       1.0598027    
    134000   298.79949      972.1382       19506.342      28786.176      30724.908      136745.8       1.0529972    
    135000   300.81477      205.82397      19683.77       29026.192      29437.069      136879.82      1.0519662    
    136000   300.08633     -490.18706      19424.353      28744.153      27773.481      135779.58      1.0604904    
    137000   299.73954     -405.09866      19393.427      28702.456      27896.477      136422.78      1.0554905    
    138000   299.41183      522.59035      19640.001      28938.852      29983.633      137084.3       1.0503971    
    139000   302.64014      126.00689      19505.635      28904.748      29155.342      136364.26      1.0559434    
    140000   300.1984      -549.4862       19496.755      28820.035      27725.836      136541.14      1.0545755    
    141000   301.10422      802.65657      19613.35       28964.762      30564.254      136639.53      1.0538161    
    142000   299.83604      692.62058      19472.66       28784.686      30158.304      135986.18      1.0588793    
    143000   297.69015     -711.9635       19389.903      28635.284      27214.012      136881.17      1.0519558    
    144000   298.55131      140.40332      19524.189      28796.315      29074.779      135992.59      1.0588294    
    145000   303.77581      271.42767      19466.165      28900.548      29441.724      136712.56      1.0532532    
    146000   296.18302      605.75715      19427.674      28626.247      29835.389      136868.25      1.0520552    
    147000   301.87925     -359.07453      19443.66       28819.142      28102.391      136869.76      1.0520435    
    148000   303.64142      397.59955      19518.57       28948.779      29737.056      135942.94      1.0592161    
    149000   299.60716     -129.12817      19439.143      28744.06       28487.244      136372.3       1.0558812    
    150000   304.84895     -269.35364      19489.945      28957.657      28422.528      136225.81      1.0570167    
    151000   300.84114     -313.60486      19455.683      28798.924      28174.881      136444.37      1.0553235    
    152000   301.38946     -524.49331      19444.856      28805.126      27763.371      136191.4       1.0572837    
    153000   300.44973      289.43748      19498.331      28829.416      29402.838      135844.98      1.0599799    
    154000   300.60095      2.0819352      19541.242      28877.024      28881.148      135842.67      1.0599979    
    155000   302.07194      5.2698804      19537.127      28918.593      28929.086      136523.12      1.0547147    
    156000   298.81055      702.66774      19519.449      28799.627      30211.438      137768.71      1.0451789    
    157000   302.58613      23.197602      19607.404      29004.84       29050.913      136185.52      1.0573293    
    158000   302.26481      259.26461      19492.508      28879.964      29396.198      136529.77      1.0546633    
    159000   300.50383     -179.39529      19469.217      28801.982      28443.865      136879.53      1.0519684    
    160000   300.82358     -897.2388       19446.938      28789.634      26992.862      137312.19      1.0486537    
    161000   301.08527      451.45264      19407.305      28758.128      29660.769      137096.72      1.0503019    
    162000   298.11533     -155.73458      19561.475      28820.06       28509.121      136903.36      1.0517853    
    163000   296.44368     -157.02295      19479.441      28686.11       28371.48       137392.08      1.048044     
    164000   304.39071     -41.232731      19549.878      29003.358      28921.304      136452.58      1.05526      
    165000   299.62971      828.21833      19472.39       28778.008      30422.47       136145.49      1.0576402    
    166000   301.91726     -451.05408      19485.049      28861.711      27963.831      136494.07      1.0549392    
    167000   296.07739     -101.55564      19526.503      28721.796      28520.376      135995.14      1.0588095    
    168000   302.91386     -379.44477      19483.728      28891.342      28139.211      135915.65      1.0594288    
    169000   302.946       -197.12783      19387.851      28796.463      28404.256      136424.08      1.0554804    
    170000   297.47325      809.27136      19315.316      28553.961      30161.014      136163.36      1.0575014    
    171000   300.67324      355.78916      19437.132      28775.159      29484.839      136771.13      1.0528022    
    172000   300.27281     -3.3108069      19536.861      28862.452      28855.833      137083.44      1.0504037    
    173000   298.35485      318.86289      19581.864      28847.888      29484.049      136800.36      1.0525772    
    174000   296.68011     -834.14777      19583.704      28797.716      27139.62       136298.42      1.0564536    
    175000   298.24483      296.34003      19613.347      28875.955      29462.805      135787.89      1.0604256    
    176000   300.68835      456.37613      19493.763      28832.259      29738.314      136130.64      1.0577556    
    177000   305.5442       1005.5115      19476.78       28966.084      30953.886      135553.29      1.0622608    
    178000   300.52017     -550.9699       19471.515      28804.788      27711.924      136007.32      1.0587146    
    179000   298.0545      -275.18775      19639.091      28895.787      28351.068      135727.45      1.0608977    
    180000   299.75051      262.03237      19493.358      28802.728      29319.626      135261.59      1.0645516    
    181000   298.50689     -4.2304071      19448.711      28719.458      28711.119      135156.23      1.0653815    
    182000   303.62665      1319.936       19383.537      28813.288      31416.167      135215.14      1.0649174    
    183000   297.0256      -644.92833      19614.22       28838.962      27563.907      135563.13      1.0621837    
    184000   297.95694      201.00271      19501.147      28754.813      29152.726      135740.78      1.0607936    
    185000   300.33613      589.23789      19501.483      28829.04       29995.69       135760.62      1.0606386    
    186000   304.0474      -657.20218      19403.471      28846.29       27554.163      134812.46      1.0680982    
    187000   299.82104      84.157305      19356.708      28668.268      28833.679      134771.63      1.0684218    
    188000   302.75681      579.64018      19385.127      28787.863      29927.085      134764.02      1.0684822    
    189000   303.37933     -290.15988      19230.604      28652.674      28083.088      134600.48      1.0697804    
    190000   298.65863     -558.89376      19443.335      28718.794      27623.194      134414.7       1.0712589    
    191000   302.37433      243.98188      19376.878      28767.736      29246.811      134638.88      1.0694752    
    192000   301.44825     -169.7605       19401.357      28763.453      28429.527      134876.97      1.0675874    
    193000   298.85635     -197.55696      19428.416      28710.016      28323.799      134048.84      1.0741827    
    194000   304.12228     -558.11201      19403.243      28848.387      27752.684      134615.69      1.0696595    
    195000   299.28233     -410.57535      19438.068      28732.897      27925.485      134842.43      1.0678608    
    196000   298.88037     -13.739929      19472.486      28754.831      28727.967      134064.46      1.0740576    
    197000   294.26204     -390.48604      19377.691      28516.605      27751.871      134285.32      1.072291     
    198000   300.89805     -74.423249      19355.441      28700.45       28555.477      133567.33      1.0780551    
    199000   295.73849      281.18693      19379.568      28564.336      29111.409      133405.51      1.0793628    
    200000   297.80793     -150.01235      19459.759      28708.798      28415.761      133942.79      1.0750332    
    201000   301.41139      1433.0998      19255.531      28616.482      31411.552      133733.5       1.0767156    
    202000   299.24042      20.371719      19517.971      28811.499      28851.361      134169.19      1.0732192    
    203000   299.29367      732.16937      19094.01       28389.192      29818.466      133852.95      1.0757547    
    204000   302.35306      167.11785      19468.294      28858.491      29185.604      134214.34      1.0728582    
    205000   301.89963      41.452379      19365.985      28742.1        28822.668      133270.68      1.0804548    
    206000   304.74318     -9.0393578      19441.909      28906.337      28888.649      134169.17      1.0732194    
    207000   298.79414     -394.16942      19369.35       28649.018      27880.919      133615.99      1.0776625    
    208000   297.57367     -572.2185       19369.005      28610.768      27498.222      133315.41      1.0800923    
    209000   303.5643      -267.55676      19285.501      28713.316      28193.673      133171.99      1.0812555    
    210000   298.22598     -891.53175      19327.184      28589.206      26860.035      132991.93      1.0827194    
    211000   298.93596      213.92369      19382.807      28666.879      29082.874      133337.64      1.0799122    
    212000   298.45652     -384.56896      19449.79       28718.972      27968.578      133794.7       1.0762231    
    213000   297.37925     -182.09645      19306.613      28542.338      28189.53       132850.05      1.0838757    
    214000   299.28023     -25.224019      19329.3        28624.064      28574.963      133475.31      1.0787984    
    215000   301.49723      199.06378      19359.068      28722.685      29110.737      133666.27      1.0772571    
    216000   297.62954     -932.12455      19269.942      28513.441      26700.527      133360.51      1.0797271    
    217000   294.73365     -632.43468      19455.408      28608.968      27381.114      133123.67      1.081648     
    218000   294.84536     -347.91655      19398.116      28555.146      27879.809      133097.51      1.0818605    
    219000   302.9596      -404.47656      19334.857      28743.891      27954.377      133841.48      1.075847     
    220000   300.59226     -89.177771      19454.927      28790.439      28616.917      133420.53      1.0792413    
    221000   300.69162     -989.11581      19388.28       28726.877      26799.657      133600.58      1.0777868    
    222000   298.4458      -191.82339      19322.954      28591.803      28217.705      133723.31      1.0767977    
    223000   299.00143      578.08466      19494.918      28781.024      29895.88       132236.6       1.0889038    
    224000   302.27522     -444.97339      19364.609      28752.389      27883.33       133918.05      1.0752318    
    225000   303.23234     -220.44019      19249.573      28667.078      28236.836      133827.73      1.0759575    
    226000   299.24269     -846.41981      19438.229      28731.827      27078.818      133910.2       1.0752949    
    227000   300.04077     -111.23497      19340.543      28658.928      28443.033      133083.91      1.0819711    
    228000   300.72781     -182.24821      19450.78       28790.501      28434.953      133770.2       1.0764202    
    229000   298.23048     -30.208582      19497.228      28759.389      28700.707      133198.53      1.08104      
    230000   301.59769     -7.5358671      19226.685      28593.422      28578.814      132915.3       1.0833436    
    231000   299.1772      -409.89648      19510.169      28801.733      28001.335      133892.3       1.0754386    
    232000   299.73166      453.40865      19354.015      28662.799      29545.801      133535.26      1.078314     
    233000   299.43382      1315.8094      19274.308      28573.842      31149.155      134202.66      1.0729515    
    234000   301.13541      744.20376      19429          28781.38       30231.281      133588.95      1.0778807    
    235000   303.45173      429.44023      19320.551      28744.869      29578.866      133163.68      1.081323     
    236000   299.79916      528.17235      19332.942      28643.822      29666.591      132777.94      1.0844644    
    237000   300.0456       411.82039      19488.957      28807.491      29606.678      133065.24      1.0821229    
    238000   301.44743     -578.65939      19288.565      28650.636      27523.987      133502.69      1.0785771    
    239000   297.98776     -490.33253      19365.928      28620.552      27668.758      133099.37      1.0818455    
    240000   300.02003      456.74886      19290.554      28608.294      29495.868      133245.15      1.0806618    
    241000   299.91888      1029.1551      19304.989      28619.588      30632.728      134127.34      1.073554     
    242000   302.16952     -781.84816      19466.422      28850.919      27330.532      133338.54      1.0799049    
    243000   301.8687      -1010.8669      19269.36       28644.515      26674.88       133602.89      1.0777682    
    244000   296.75042      813.73387      19451.795      28667.991      30250.68       133363.59      1.0797021    
    245000   302.91976     -313.0358       19344.556      28752.353      28142.916      133493.21      1.0786537    
    246000   296.71579     -314.88523      19397.894      28613.014      27999.623      133569.97      1.0780338    
    247000   300.80737     -247.45923      19376.469      28718.661      28237.875      133220.96      1.080858     
    248000   296.0062       649.22085      19320.883      28513.965      29779.761      133688.87      1.0770751    
    249000   297.66524     -83.479015      19334.743      28579.35       28416.076      134111.44      1.0736813    
    250000   302.53902      136.3153       19368.793      28764.765      29031.002      133920.53      1.0752119    
    251000   300.66357     -960.02944      19470.608      28808.335      26932.624      133969.36      1.0748199    
    252000   299.76112     -544.19282      19469.004      28778.703      27715.356      133981.98      1.0747187    
    253000   304.31259     -156.86671      19435.656      28886.711      28580.016      134059.85      1.0740945    
    254000   299.45495     -306.23065      19356.108      28656.298      28060.545      133395.74      1.0794419    
    255000   299.39248      1307.2205      19463.494      28761.745      31314.686      133910.96      1.0752887    
    256000   299.78554      512.45694      19479.548      28790.006      29790.885      133920.95      1.0752085    
    257000   298.5208       516.60816      19280.217      28551.395      29557.458      133532.79      1.078334     
    258000   301.82729     -240.40736      19527.433      28901.301      28433.889      133314.06      1.0801032    
    259000   299.56399      686.36361      19379.273      28682.849      30022.968      133879.19      1.0755439    
    260000   298.5254       998.31538      19207.44       28478.762      30413.804      132906.7       1.0834137    
    261000   302.82706      454.18029      19326.524      28731.442      29613.116      133107.91      1.0817761    
    262000   301.59399     -167.30703      19355.975      28722.598      28396.748      133545.14      1.0782343    
    263000   299.17916      195.68801      19455.126      28746.751      29127.16       133293.87      1.0802668    
    264000   301.00747     -391.39701      19299.192      28647.599      27883.066      133937.75      1.0750736    
    265000   297.64198      243.98774      19256.893      28500.778      28978.34       134210.45      1.0728892    
    266000   299.3922       424.01848      19418.475      28716.717      29542.111      133475.19      1.0787993    
    267000   298.65806      515.71327      19415.136      28690.577      29692.914      133269.13      1.0804674    
    268000   298.51798      157.34752      19417.73       28688.821      28996.179      133939.44      1.0750601    
    269000   303.30851     -180.93476      19334.971      28754.841      28403.943      132979.06      1.0828242    
    270000   297.93432     -865.11219      19272.767      28525.731      26837.252      133828.11      1.0759544    
    271000   301.17014      131.74348      19430.963      28784.422      29041.048      133565.97      1.0780661    
    272000   301.89896      190.96579      19359.219      28735.313      29105.482      132913.49      1.0833584    
    273000   298.7273      -758.69269      19304.54       28582.132      27102.997      133679.85      1.0771477    
    274000   302.46567      201.73122      19418.042      28811.736      29205.176      133730.15      1.0767426    
    275000   295.87494     -926.27714      19294.894      28483.9        26681.973      133389.12      1.0794954    
    276000   299.3459       341.18292      19380.099      28676.902      29340.266      133317.98      1.0800714    
    277000   298.47312     -1048.1887      19208.326      28478.023      26432.847      133787.45      1.0762814    
    278000   302.03879     -36.440671      19352.08       28732.517      28661.67       133308.17      1.080151     
    279000   296.79049     -179.19036      19385.118      28602.558      28252.969      133772.44      1.0764022    
    280000   299.77002     -354.05754      19252.088      28562.064      27872.985      133450.18      1.0790015    
    281000   298.90205      609.39499      19508.419      28791.438      29978.797      133600.26      1.0777894    
    282000   302.48732     -34.716728      19239.023      28633.39       28565.488      134113.09      1.0736681    
    283000   303.4518      -267.57542      19435.927      28860.248      28339.534      133437.25      1.0791061    
    284000   303.44565     -448.32427      19199.722      28623.851      27749.018      133800.29      1.0761781    
    285000   298.70649     -359.86096      19337.641      28614.586      27914.305      133432.6       1.0791437    
    286000   296.76576     -42.515777      19309.809      28526.481      28443.807      133334.31      1.0799392    
    287000   296.82062      135.50551      19427.208      28645.583      28908.843      133214.22      1.0809128    
    288000   298.72957     -656.79326      19305.081      28582.743      27300.079      133908.57      1.0753079    
    289000   299.73538     -229.19406      19379.491      28688.39       28243.065      133228.93      1.0807934    
    290000   301.62147      48.192559      19522.126      28889.603      28983.553      133672.57      1.0772064    
    291000   297.7569       74.005821      19334.438      28581.892      28725.7        133241.65      1.0806902    
    292000   296.83418     -817.61141      19329.817      28548.613      26965.18       132793.53      1.084337     
    293000   304.43312      796.4412       19353.107      28807.904      30351.484      132892.15      1.0835323    
    294000   297.87559     -109.22061      19380.962      28632.102      28419.831      133263.61      1.0805121    
    295000   299.95135      231.15607      19377.296      28692.903      29139.997      132622.87      1.0857324    
    296000   295.80008      243.29495      19285.037      28471.717      28944.966      133376.89      1.0795944    
    297000   299.72151      146.285        19356.844      28665.313      28948.931      132940.9       1.083135     
    298000   298.42214     -22.2127        19574.825      28842.939      28799.873      132941.62      1.0831292    
    299000   297.58951     -328.68709      19402.974      28645.23       28004.258      133715.09      1.0768638    
    300000   302.42919     -138.24099      19299.964      28692.525      28423.401      133487.59      1.0786991    
    301000   301.14025      238.63701      19411.928      28764.458      29230.783      133990.65      1.0746492    
    302000   302.49618     -6.5563332      19334.603      28729.245      28716.573      132525.29      1.0865318    
    303000   301.7228       190.32384      19172.269      28542.892      28910.648      132492.44      1.0868012    
    304000   301.38881     -339.75217      19259.508      28619.759      27959.738      133204.56      1.0809911    
    305000   299.27501      629.84194      19271.832      28566.434      29782.693      132409.31      1.0874835    
    306000   301.36881     -393.70912      19439.575      28799.204      28035.68       132975.41      1.082854     
    307000   297.29481      1336.8003      19442.341      28675.443      31268.632      133012.26      1.0825539    
    308000   299.79172      1379.3327      19379.517      28690.167      31369.726      133204.38      1.0809925    
    309000   297.70123     -174.64917      19331.713      28577.438      28239.269      132767.05      1.0845533    
    310000   299.88964     -482.50263      19378.344      28692.034      27755.672      133066.33      1.082114     
    311000   302.09856     -219.90121      19269.742      28652.035      28223.25       133701.45      1.0769737    
    312000   302.31057     -895.12986      19374.926      28763.803      27038.07       132194         1.0892548    
    313000   296.82787     -372.17775      19269.828      28488.429      27769.354      132479.21      1.0869098    
    314000   302.4943       666.56843      19280.992      28675.576      29970.65       133221.43      1.0808543    
    315000   296.87606     -335.87537      19099.901      28319.999      27668.728      132955.98      1.0830121    
    316000   299.62319      463.18926      19256.223      28561.638      29451.674      131756.75      1.0928696    
    317000   300.27902     -1324.0611      19361.966      28687.75       26132.005      132352.91      1.087947     
    318000   298.92434      1154.7977      19453.143      28736.854      30965.94       132356.45      1.0879178    
    319000   301.10679     -209.50265      19180.569      28532.06       28129.077      131893.09      1.0917399    
    320000   300.78188      1358.1471      19374.902      28716.303      31333.09       132113.05      1.0899222    
    321000   301.42678     -153.61237      19152.592      28514.022      28216.431      132836.41      1.083987     
    322000   296.65353      465.51776      19202.779      28415.966      29314.291      132318.78      1.0882276    
    323000   302.43228     -133.35034      19304.704      28697.362      28438.496      133107.95      1.0817757    
    324000   303.07424      980.54211      19184.282      28596.876      30494.355      132688.95      1.0851916    
    325000   297.42028     -592.28094      19313.415      28550.415      27404.279      132688.25      1.0851974    
    326000   301.96532      161.14585      19290.366      28668.521      28980.216      132627.88      1.0856914    
    327000   299.08534      273.90336      19339.965      28628.676      29159.359      132850.04      1.0838758    
    328000   298.06822      497.09614      19224.022      28481.144      29442.909      132663.86      1.0853969    
    329000   297.85579     -883.66919      19335.871      28586.396      26875.485      132758.38      1.0846241    
    330000   299.92071      1313.4923      19300.755      28615.41       31160.543      132863.92      1.0837626    
    331000   301.02433      516.71517      19308.686      28657.616      29657.181      132642.85      1.0855689    
    332000   296.22907     -673.87486      19337.04       28537.044      27230.241      132970.41      1.0828946    
    333000   299.6952       341.13668      19339.888      28647.54       29308.41       132834.7       1.084001     
    334000   301.7845      -1450.9173      19216.105      28588.645      25759.557      133698.89      1.0769943    
    335000   298.00416      116.28112      19112.052      28367.185      28592.034      132588.45      1.0860142    
    336000   298.21465      353.32148      19297.69       28559.36       29241.63       132406.83      1.0875039    
    337000   299.60862      106.6651       19479.685      28784.648      28991.993      133289.15      1.0803051    
    338000   300.84998      495.99788      19144.19       28487.706      29445.544      132414.72      1.0874391    
    339000   300.05081     -217.25454      19356.947      28675.643      28254.236      133001.59      1.0826407    
    340000   300.27085     -1573.5503      19244.537      28570.067      25536.703      132180.67      1.0893646    
    341000   296.31931     -1007.5469      19283.832      28486.638      26538.2        132600.61      1.0859146    
    342000   302.66252     -368.87416      19311.889      28711.697      27997.078      132837.41      1.0839789    
    343000   299.05556      542.20786      19325.807      28613.593      29667.057      133222.63      1.0808445    
    344000   302.14006     -35.016191      19319.132      28702.714      28635.097      132406.31      1.0875082    
    345000   302.13361     -90.213066      19079.259      28462.641      28289.401      131674.85      1.0935493    
    346000   299.73745      90.723073      19315.627      28624.591      28799.775      132404.09      1.0875264    
    347000   301.44964     -123.2101       19155.49       28517.63       28281.147      131606.58      1.0941166    
    348000   300.48247      226.23387      19307.898      28640          29076.316      132241.44      1.088864     
    349000   303.20241      213.05155      19336.304      28752.88       29163.997      132313.68      1.0882695    
    350000   298.96865      694.86899      19293.104      28578.192      29926.259      133024.86      1.0824514    
    351000   301.50605     -291.08694      19133.456      28497.347      27934.819      132509.15      1.0866642    
    352000   296.40365      704.48858      19279.723      28485.149      29845.94       132446.85      1.0871753    
    353000   297.30918     -216.36384      19313.557      28547.106      28127.568      132957.03      1.0830036    
    354000   303.6834       330.84506      19264.067      28695.581      29336.886      132912.03      1.0833703    
    355000   296.8151      -197.5736       19413.383      28631.588      28251.159      132028.53      1.0906199    
    356000   299.99133     -151.79985      19264.011      28580.859      28288.193      132198.23      1.0892199    
    357000   301.63699      995.67724      19387.501      28755.459      30687.492      133051.59      1.0822339    
    358000   298.68526     -708.44594      19316.558      28592.844      27227.036      132192.54      1.0892668    
    359000   297.18513     -904.10971      19267.196      28496.892      26747.604      132667.42      1.0853678    
    360000   299.25129      293.08871      19456.119      28749.984      29317.597      132793.7       1.0843357    
    361000   304.58367     -534.4182       19192.182      28651.655      27614.904      133020.22      1.0824891    
    362000   300.58486     -392.73449      19220.643      28555.926      27795.083      132837.16      1.0839809    
    363000   303.06975      304.84266      19194.494      28606.95       29194.439      132144.17      1.0896655    
    364000   301.49697      693.83922      19274.964      28638.573      29982.355      132798.75      1.0842944    
    365000   298.6355      -491.4256       19226.8        28501.541      27553.609      132264.53      1.0886739    
    366000   297.35329     -1035.2311      19232.072      28466.991      26468.716      132355.51      1.0879256    
    367000   300.3619      -687.95094      19373.983      28702.341      27372.626      132533.38      1.0864655    
    368000   302.31762      135.67189      19281.724      28670.821      28932.188      132094.56      1.0900748    
    369000   298.68275     -502.16094      19249.527      28525.735      27562.326      131550.33      1.0945844    
    370000   302.08587     -127.23232      19271.537      28653.436      28409.698      131356.15      1.0962025    
    371000   301.85426     -189.25717      19305.788      28680.494      28312.225      133424.71      1.0792075    
    372000   295.55897     -563.75289      19284.321      28463.514      27364.037      133727.76      1.0767618    
    373000   301.15576     -451.33649      19344.669      28697.682      27826.119      132410.47      1.087474     
    374000   298.60506      187.65734      19270.992      28544.787      28907.902      132678.88      1.085274     
    375000   296.12234     -641.74795      19237.684      28434.374      27193.544      132578.05      1.0860994    
    376000   296.3992       112.76524      19346.412      28551.7        28770.174      132846.45      1.0839051    
    377000   297.5027       1413.5471      19276.478      28516.037      31239.478      132108.81      1.0899571    
    378000   303.89662     -414.73772      19331.866      28770.001      27965.265      133046.65      1.0822741    
    379000   299.26529     -183.64055      19386.443      28680.743      28327.504      131893.59      1.0917357    
    380000   300.13187     -771.97059      19309.111      28630.325      27133.67       132936.73      1.083169     
    381000   301.92345      1020.434       19345.479      28722.334      30687.725      132065.15      1.0903175    
    382000   298.19591     -342.02868      19254.966      28516.055      27855.97       132330.97      1.0881273    
    383000   299.46012     -895.69603      19225.761      28526.112      26798.578      132248.29      1.0888076    
    384000   298.92553     -59.751032      19344.138      28627.886      28512.579      132322.11      1.0882002    
    385000   303.31448      255.19925      19268.895      28688.951      29178.888      131639.28      1.0938448    
    386000   301.92099      95.286796      19282.036      28658.814      28842.98       132525.83      1.0865274    
    387000   301.11792      1439.4454      19184.108      28535.946      31294.426      131401.03      1.0958282    
    388000   298.17572     -425.12048      19376.937      28637.399      27816.362      132426.43      1.087343     
    389000   298.03935     -831.68033      19360.774      28617          27009.245      132552.39      1.0863096    
    390000   302.02156      473.67641      19300.852      28680.754      29594.106      132214.96      1.0890821    
    391000   297.91122      687.71101      19163.546      28415.792      29740.371      132067.45      1.0902985    
    392000   300.25005     -295.08469      19289.304      28614.188      28044.659      132340.57      1.0880484    
    393000   298.79939     -333.27866      19272.882      28552.713      27905.849      133085.13      1.0819612    
    394000   298.5628       320.61414      19155.26       28427.743      29042.939      131569.41      1.0944257    
    395000   300.93149     -912.18885      19254.755      28600.802      26844.615      132010.97      1.090765     
    396000   297.31039     -219.26819      19303.28       28536.867      28118.877      130711.58      1.1016082    
    397000   301.1043       1082.0858      19343.5        28694.914      30776.087      131877.5       1.091869     
    398000   298.34225     -100.70635      19378.841      28644.474      28450.69       131942.77      1.0913288    
    399000   298.7409       19.437148      19149.625      28427.639      28465.068      132039.08      1.0905328    
    400000   301.35255      411.62818      19265.011      28624.135      29415.892      131889.75      1.0917675    
    401000   301.71913      451.78419      19310.504      28681.014      29544.45       131045.82      1.0987985    
    402000   301.3286      -473.30153      19209.436      28567.817      27655.902      132111.5       1.089935     
    403000   301.60492      823.582        19395.583      28762.545      30345.979      131830.95      1.0922545    
    404000   298.96893      947.71094      19294.675      28579.771      30401.17       131781.13      1.0926674    
    405000   296.65689     -1237.2335      19384.903      28598.194      26207.599      132488.58      1.0868328    
    406000   298.15893     -362.58905      19259.481      28519.421      27817.784      132684.97      1.0852243    
    407000   299.8165       812.60718      19266.781      28578.2        30140.99       131869.4       1.091936     
    408000   301.55777     -866.46062      19217.214      28582.712      26912.443      132178.79      1.0893801    
    409000   298.49221     -356.59289      19150.627      28420.918      27733.021      132273.98      1.0885961    
    410000   299.73899      88.168926      19301.232      28610.244      28779.714      131796.18      1.0925427    
    411000   299.85575     -329.90088      19448.853      28761.491      28131.306      130981.12      1.0993412    
    412000   296.6621       373.23974      19362.498      28575.951      29293.861      131888.29      1.0917796    
    413000   298.58733     -768.67804      19396.347      28669.592      27198.797      131199.38      1.0975124    
    414000   299.14296      192.16838      19156.537      28447.038      28816.271      131747.49      1.0929464    
    415000   303.53432      483.4384       19278.522      28705.406      29632.658      131516.72      1.0948642    
    416000   296.94487     -610.90177      19286.303      28508.537      27332.822      131963.84      1.0911546    
    417000   298.4649      -240.53364      19267.114      28536.556      28071.082      132691.67      1.0851694    
    418000   297.94628     -838.54308      19293.211      28546.547      26942.446      131168.79      1.0977684    
    419000   298.83696     -218.35063      19206.064      28487.061      28066.064      132205.23      1.0891622    
    420000   304.30347      444.23423      19245.347      28696.119      29546.851      131312.15      1.0965698    
    421000   301.20712     -499.39342      19306.508      28661.116      27704.328      131370.3       1.0960845    
    422000   296.60771      554.48713      19247.527      28459.291      29524.326      131703.32      1.093313     
    423000   302.56118      424.45389      19264.6        28661.261      29476.672      131725.65      1.0931276    
    424000   304.70912      352.60556      19229.087      28692.457      29371.993      132143.95      1.0896673    
    425000   299.11004     -520.93186      19341.137      28630.616      27628.299      131931.44      1.0914225    
    426000   297.17134     -476.35142      19186.654      28415.922      27501.821      131580.32      1.0943349    
    427000   300.96521      199.35682      19287.232      28634.327      29017.618      131832.35      1.0922428    
    428000   301.15956     -663.43095      19231.487      28584.617      27308.754      131865.9       1.091965     
    429000   298.91378     -181.49945      19216.124      28499.507      28150.623      131804.46      1.092474     
    430000   302.41426     -11.712917      19299.082      28691.18       28668.704      131572.04      1.0944039    
    431000   301.12393      484.13344      19262.453      28614.477      29545.462      131856.59      1.0920421    
    432000   301.0074      -186.4539       19288.893      28637.298      28279.284      131659.54      1.0936765    
    433000   302.86509      110.82288      19121.832      28527.931      28741.22       131966.26      1.0911346    
    434000   303.38232     -677.16962      19224.483      28646.646      27350.632      131230.95      1.0972483    
    435000   300.15922      425.83212      19223.574      28545.636      29358.315      130859.24      1.1003651    
    436000   301.79357      587.44191      19413.019      28785.84       29914.051      131688.97      1.0934321    
    437000   302.18326     -294.92448      19221.248      28606.172      28038.622      131952.49      1.0912484    
    438000   298.29562     -734.08387      19256.838      28521.023      27109.39       131856.11      1.092046     
    439000   300.86321     -167.57359      19211.234      28555.161      28233.049      131802.95      1.0924865    
    440000   302.06244      517.01404      19264.581      28645.753      29640.406      131914.8       1.0915602    
    441000   298.63412      1199.9076      19376.722      28651.42       30949.582      131327.88      1.0964385    
    442000   303.23854     -713.74106      19196.262      28613.959      27242.47       131757.7       1.0928617    
    443000   298.66155     -44.305335      19159.699      28435.249      28350.65       130927.77      1.0997892    
    444000   301.03513     -733.43081      19244.503      28593.769      27183.697      131827.59      1.0922823    
    445000   298.69368      1043.8163      19323.205      28599.753      30609.391      132013.41      1.0907448    
    446000   299.23889     -280.17854      19222.912      28516.392      27974.395      132643.53      1.0855633    
    447000   297.1478      -550.29233      19294.819      28523.356      27462.314      132209.71      1.0891254    
    448000   297.80988     -1218.7453      19399.408      28648.507      26287.184      132851.54      1.0838636    
    449000   298.27631     -407.02366      19271.483      28535.068      27750.663      132143.2       1.0896735    
    450000   299.55736     -268.83509      19205.479      28508.85       27992.951      131583.87      1.0943054    
    451000   299.31112     -569.63607      19342.073      28637.797      27540.486      132085.91      1.0901462    
    452000   297.12389     -975.47053      19359.979      28587.773      26702.054      132552.2       1.0863112    
    453000   298.98483      166.98389      19370.88       28656.47       28976.263      131316.57      1.0965329    
    454000   300.97678     -660.05886      19224.795      28572.249      27307.972      131335.97      1.096371     
    455000   299.63156      345.64678      19313.591      28619.266      29286.596      132382.96      1.0877       
    456000   301.20618     -577.05822      19340.454      28695.033      27581.642      132297.69      1.0884011    
    457000   299.19447     -18.04307       19155.969      28448.07       28413.297      132146.43      1.0896469    
    458000   298.57219     -366.66558      19228.565      28501.339      27791.827      132682.53      1.0852442    
    459000   299.70205     -276.22283      19235.123      28542.988      28014.09       131291.48      1.0967425    
    460000   301.34061     -374.31117      19280.622      28639.376      27920.868      131620.34      1.0940022    
    461000   298.26532     -612.68366      19315.429      28578.672      27402.087      131677.41      1.0935281    
    462000   298.96116      57.197301      19223.372      28508.227      28618.005      131602.73      1.0941487    
    463000   295.71301     -345.08359      19277.38       28461.357      27795.589      132288.72      1.0884748    
    464000   300.39692     -927.98111      19348.316      28677.761      26888.269      132225.36      1.0889964    
    465000   298.073        105.06205      19221.186      28478.457      28680.854      132093.33      1.0900849    
    466000   300.44658     -1589.697       19347.872      28678.859      25626.463      131659.05      1.0936806    
    467000   300.46793     -568.23217      19060.818      28392.469      27296.544      132244.89      1.0888356    
    468000   300.97045     -259.48213      19266.971      28614.228      28115.338      131832.15      1.0922445    
    469000   300.19429     -404.81864      19229.249      28552.4        27775.148      131651.49      1.0937434    
    470000   301.37172     -818.05399      19244.809      28604.528      27033.876      131650.36      1.0937528    
    471000   302.97917      380.85125      19213.269      28622.912      29353.233      131486.93      1.0951122    
    472000   300.80889     -440.9955       19157.878      28500.118      27653.064      131704.53      1.0933029    
    473000   299.45474     -733.13075      19301.441      28601.625      27191.863      131852.57      1.0920754    
    474000   296.7245       11.598552      19255.859      28471.25       28493.549      131831.04      1.0922537    
    475000   306.01649     -629.61676      19234.945      28738.918      27534.898      131123.72      1.0981457    
    476000   303.10085      1186.5913      19220.062      28633.483      30906.898      131371.67      1.0960731    
    477000   298.28471      175.05041      19179.349      28443.196      28778.414      131307.32      1.0966102    
    478000   296.59971      227.1661       19295.328      28506.843      28943.208      131713.5       1.0932284    
    479000   298.82928     -490.66259      19272.954      28553.713      27610.97       131745.06      1.0929666    
    480000   298.76638     -574.58258      19152.376      28431.181      27334.811      130836.5       1.1005564    
    481000   300.93959      1229.6012      19298.67       28644.969      30984.301      130452.3       1.1037977    
    482000   292.38119      270.0198       19258.282      28338.782      28854.496      130959.56      1.0995222    
    483000   299.02574      99.034669      19284.997      28571.857      28761.078      131010.45      1.0990951    
    484000   300.7262       526.03635      19362.756      28702.427      29714.8        131962.02      1.0911696    
    485000   298.27754     -97.766451      19258.35       28521.973      28333.379      132270.17      1.0886275    
    486000   304.46001      681.02738      19335.593      28791.225      30100.638      131836.65      1.0922073    
    487000   298.61374      699.07119      19157.088      28431.152      29765.779      130906.89      1.0999646    
    488000   300.77727      186.46341      19283.47       28624.728      28984.791      132406.61      1.0875057    
    489000   301.95984     -852.52082      19262.384      28640.369      27008.531      131249         1.0970974    
    490000   302.54549      1204.4085      19222.395      28618.569      30926.384      131386.7       1.0959476    
    491000   301.06947     -1504.9686      19250.925      28601.258      25706.3        131898.2       1.0916976    
    492000   296.0495       1224.9262      19106.521      28300.948      30645.99       131269.81      1.0969235    
    493000   301.37438     -228.66818      19234.846      28594.648      28156.823      131286.14      1.0967871    
    494000   303.11891     -107.01216      19227.062      28641.044      28435.54       131677.12      1.0935305    
    495000   297.36634     -911.29742      19159.801      28395.125      26656.535      130816.09      1.1007281    
    496000   299.06192      149.72853      19222.577      28510.561      28796.875      131118.06      1.0981931    
    497000   307.56433      1179.4917      19247.018      28799.062      31053.838      131078.84      1.0985217    
    498000   301.0435      -14.085197      19304.629      28654.156      28627.202      131211.99      1.0974069    
    499000   297.61353     -684.62615      19231.788      28474.789      27165.527      131128.56      1.0981051    
    500000   298.8089       720.92497      19312.064      28592.19       29977.875      131794.9       1.0925532    
    500051   300.61951     -1331.3052      19370.202      28706.56       26144.488      131958.66      1.0911974    
Loop time of 1368.3 on 32 procs for 500000 steps with 10420 atoms

Performance: 31.572 ns/day, 0.760 hours/ns, 365.417 timesteps/s, 3.808 Matom-step/s
100.0% CPU use with 32 MPI tasks x no OpenMP threads

MPI task timing breakdown:
Section |  min time  |  avg time  |  max time  |%varavg| %total
---------------------------------------------------------------
Pair    | 425.03     | 735.38     | 940.28     | 494.1 | 53.74
Bond    | 135.41     | 211.45     | 244.55     | 202.7 | 15.45
Kspace  | 85.226     | 312.86     | 683.61     | 898.8 | 22.86
Neigh   | 53.774     | 53.798     | 53.83      |   0.2 |  3.93
Comm    | 38.149     | 41.959     | 49.898     |  47.5 |  3.07
Output  | 0.0098225  | 0.012007   | 0.077312   |  10.7 |  0.00
Modify  | 8.9231     | 9.5755     | 10.403     |  12.0 |  0.70
Other   |            | 3.271      |            |       |  0.24

Nlocal:        325.625 ave         365 max         226 min
Histogram: 3 0 0 1 0 2 4 8 8 6
Nghost:        6663.72 ave        6896 max        6356 min
Histogram: 1 4 4 1 2 5 3 4 3 5
Neighs:         149128 ave      179809 max       95112 min
Histogram: 4 0 0 0 1 6 6 4 9 2

Total # of neighbors = 4772109
Ave neighs/atom = 457.97591
Ave special neighs/atom = 5.6065259
Neighbor list builds = 14997
Dangerous builds = 0

unfix EQ


# ============================================
# Heating scan: enthalpy vs temperature
# ============================================

variable T equal 300
variable T_end equal 900
variable dT equal 10

shell echo "# T(K)    Enthalpy(kcal/mol)    Volume(A^3)" > H_T.dat

label loop_T
if "${T} > ${T_end}" then "jump SELF end_loop"

reset_timestep 0
velocity all create ${T} 293847 dist gaussian mom yes rot yes
velocity all create 300 293847 dist gaussian mom yes rot yes

fix NPT all npt temp ${T} ${T} 100.0 iso 1.0 1.0 1000.0
fix NPT all npt temp 300 ${T} 100.0 iso 1.0 1.0 1000.0
fix NPT all npt temp 300 300 100.0 iso 1.0 1.0 1000.0

thermo_style custom step temp press enthalpy vol density
thermo 2000

run 500000     # 500 ps per temperature
Ewald initialization ...
  using 12-bit tables for long-range coulomb
  G vector (1/distance) = 0.11844728
  estimated absolute RMS force accuracy = 0.3916011
  estimated relative force accuracy = 0.0011792951
  KSpace vectors: actual max1d max3d = 61 3 171
                  kxmax kymax kzmax  = 3 3 3
Generated 21 of 21 mixed pair_coeff terms from sixthpower/sixthpower mixing rule
Per MPI rank memory allocation (min/avg/max) = 16.95 | 17.1 | 18.05 Mbytes
   Step          Temp          Press         Enthalpy        Volume        Density    
         0   300           -1353.3586      26057.986      131958.66      1.0911974    
      2000   300.12273     -243.55978      28160.142      130901.81      1.1000073    
      4000   298.82763      217.63906      28921.836      132051.97      1.0904263    
      6000   300.43002      771.36472      29967.939      131723.4       1.0931463    
      8000   297.71627     -196.50015      28244.458      130903.05      1.0999969    
     10000   299.54776      430.66428      29248.44       130457.51      1.1037536    
     12000   295.63895      183.21737      28757.312      132010.24      1.090771     
     14000   305.77802      606.17405      29872.933      131757.18      1.092866     
     16000   301.40093     -297.04503      27990.857      131916.78      1.0915438    
     18000   302.41301      113.376        28793.035      131932.27      1.0914157    
     20000   299.52369     -1366.776       25828.459      132132.76      1.0897596    
     22000   298.38284     -1347.4658      25889.893      132177.25      1.0893928    
     24000   300.36488      1297.9326      30932.338      131094.57      1.0983899    
     26000   301.14612      585.86486      29692.414      131770.27      1.0927575    
     28000   298.23914      798.06326      30032.155      131175.99      1.0977081    
     30000   296.85257      346.63311      29081.164      132206.16      1.0891546    
     32000   305.00152     -408.08377      27754.736      131754.09      1.0928916    
     34000   297.18486     -1118.3511      26414.893      131698.78      1.0933506    
     36000   296.69171     -187.98224      28042.961      131533.93      1.0947209    
     38000   301.55835      438.70871      29468.29       131289.21      1.0967615    
     40000   301.37852      343.36246      29306.178      131178.62      1.0976861    
     42000   301.57346     -1399.6536      25898.012      131171.94      1.097742     
     44000   300.25327      759.41863      30063.274      131856.09      1.0920462    
     46000   298.238        382.21267      29158.026      131619.13      1.0940123    
     48000   301.51255      237.21501      28973.034      131742.35      1.092989     
     50000   301.4621       648.22166      29819.612      130614.27      1.1024289    
     52000   299.09372      694.563        29897.096      132671.42      1.0853351    
     54000   300.893        381.3624       29231.264      131790.38      1.0925907    
     56000   300.62532      693.18805      29899.107      131822.86      1.0923215    
     58000   299.79174      613.94322      29768.699      131798.84      1.0925206    
     60000   302.85843      351.74278      29503.667      131847.32      1.0921188    
     62000   295.44012     -455.17628      27568.471      131518.24      1.0948515    
     64000   300.98444      681.65029      30098.439      132191.01      1.0892794    
     66000   299.89749     -1264.1724      26147.13       132377.42      1.0877455    
     68000   299.40135      617.41281      29648.946      131064.1       1.0986452    
     70000   304.45266      393.50413      29463.605      131819.41      1.0923501    
     72000   300.47246      285.83855      29168.055      132026.68      1.0906352    
     74000   299.20962     -776.65212      27012.999      131623.96      1.0939721    
     76000   296.87726     -463.22822      27601.702      131520.74      1.0948307    
     78000   297.47525      42.665268      28661.31       132079.55      1.0901987    
     80000   301.65258     -244.89989      28001.048      131913.85      1.0915681    
     82000   299.73801     -625.10693      27431.977      131504.39      1.0949668    
     84000   300.65931     -1349.5705      25955.826      132203.31      1.0891781    
     86000   296.47035     -507.30458      27441.967      131847.97      1.0921135    
     88000   301.28625     -104.03718      28234.574      131364.32      1.0961344    
     90000   302.16097     -649.83245      27334.86       132366.49      1.0878354    
     92000   301.02352      707.48358      29725.905      132148.07      1.0896333    
     94000   301.82108     -142.86536      28378.133      131752.59      1.0929041    
     96000   300.89661     -982.32998      26749.982      132194.47      1.0892509    
     98000   300.70326      726.16443      29921.696      132012.1       1.0907556    
    100000   298.70007     -84.323205      28287.105      130431.39      1.1039747    
    102000   300.30659     -83.871905      28375.913      132056.85      1.090386     
    104000   301.09737      480.98892      29502.978      131114.9       1.0982195    
    106000   305.14935      597.36289      29774.586      132069.52      1.0902815    
    108000   302.22184      238.74022      29132.045      131464.05      1.0953028    
    110000   299.37248     -875.14206      26685.509      131391.43      1.0959082    
    112000   295.74546     -280.32379      27843.311      131241.5       1.0971602    
    114000   302.81267      356.37616      29343.672      131793.22      1.0925672    
    116000   300.8904       1075.6285      30603.805      131765.92      1.0927935    
    118000   300.71317     -347.45005      27886.423      131651.8       1.0937408    
    120000   298.78264      588.14496      29506.355      132076.7       1.0902222    
    122000   302.50379     -3.2477948      28438.499      131574.56      1.0943829    
    124000   301.85108     -266.48751      28056.317      131828.39      1.0922757    
    126000   298.83808      1012.3649      30354.147      131572.88      1.0943968    
    128000   303.48121     -262.52087      28228.862      131538.01      1.094687     
    130000   302.04453     -762.39997      27237.867      131422.73      1.0956472    
    132000   303.34563      384.25218      29379.214      131735.38      1.0930469    
    134000   300.00563      791.11885      30041.674      131655.71      1.0937083    
    136000   302.26713      22.509912      28707.006      131446.86      1.095446     
    138000   299.95903     -699.23799      27232.597      132467.1       1.0870091    
    140000   298.67984     -400.95762      27750.026      131946.09      1.0913014    
    142000   298.82439     -414.45691      27693.96       131950.74      1.0912628    
    144000   300.89383     -37.435309      28423.366      131257.89      1.0970232    
    146000   300.95558      743.96959      29965.311      131356.27      1.0962015    
    148000   299.40504      230.25622      29123.534      132084.95      1.0901541    
    150000   297.6137       693.92663      29796.109      131284.64      1.0967996    
    152000   296.7278       939.7436       30196.79       131952.5       1.0912483    
    154000   296.19553     -604.54876      27221.766      131932.81      1.0914112    
    156000   301.28281      331.81487      29247.695      131517.02      1.0948617    
    158000   300.47907     -1024.8668      26622.164      131520.4       1.0948335    
    160000   299.82647      284.62412      28906.747      129904.18      1.1084551    
    162000   299.92219      249.63875      28930.927      130507.16      1.1033337    
    164000   296.93063     -611.12009      27304.831      130577.55      1.1027389    
    166000   298.40602      73.656123      28617.094      130549.45      1.1029762    
    168000   301.45237      229.4708       29015.701      131569.95      1.0944212    
    170000   305.88913     -285.75253      28063.986      131277.64      1.0968581    
    172000   299.71782     -55.430165      28406.003      131961.79      1.0911715    
    174000   297.78471      194.42438      28726.577      131776.91      1.0927024    
    176000   294.47636     -58.864224      28266.703      132105.47      1.0899847    
    178000   297.72728     -584.93105      27272.224      132107.2       1.0899704    
    180000   299.95236     -668.73716      27184.072      131565.66      1.0944569    
    182000   300.25235      69.875828      28530.313      131033.83      1.098899     
    184000   303.12553      190.95718      29010.23       131681.76      1.0934919    
    186000   298.28269     -180.41584      27961.765      131849.67      1.0920994    
    188000   301.63645      246.44795      29032.295      131094.52      1.0983902    
    190000   300.81503      737.79023      29795.459      131480.73      1.0951639    
    192000   300.15656      170.61777      28957.72       131721.08      1.0931656    
    194000   303.11671      555.35772      29545.407      130727.95      1.1014702    
    196000   297.56166      537.62303      29468.014      131305.45      1.0966258    
    198000   304.71417      1211.8981      30953.99       131632.69      1.0938996    
    200000   301.20578      196.42326      28938.779      131592.69      1.0942321    
    202000   302.39693     -100.01577      28381.226      131844.8       1.0921398    
    204000   301.98047     -1119.6758      26447.553      131654.41      1.0937191    
    206000   298.2464      -110.88479      28226.908      131889.84      1.0917668    
    208000   300.85112      196.01535      28820.099      131542.94      1.094646     
    210000   300.06764      162.74236      28986.47       131352.71      1.0962312    
    212000   300.10699      57.037307      28573.263      131194.91      1.0975498    
    214000   301.32897     -774.41219      26994.125      131514.45      1.0948831    
    216000   300.85718      655.73586      29731.828      131088.15      1.0984436    
    218000   300.66239     -15.126096      28438.947      131775.95      1.0927104    
    220000   297.97156     -373.39813      27867.948      131384.88      1.0959629    
    222000   304.32576     -1161.2759      26476.703      132133.56      1.0897531    
    224000   302.0658       224.89207      28998.074      131891.73      1.0917512    
    226000   298.2796       169.47348      28891.071      131340.76      1.096331     
    228000   303.54054      343.46219      29320.825      131390.18      1.0959186    
    230000   302.81647      608.32953      29796.316      131754.28      1.0928901    
    232000   298.87258     -1655.326       25227.038      130965.4       1.0994732    
    234000   300.53501      287.01955      29047.724      131106.91      1.0982865    
    236000   299.79801      166.36325      28657.734      132106.03      1.0899801    
    238000   299.24738     -303.50333      27945.512      131359.26      1.0961766    
    240000   298.59089      424.22981      29165.064      131432.91      1.0955623    
    242000   299.45834      115.64984      28816.349      131613.71      1.0940574    
    244000   301.31509     -26.117055      28707.789      131644.41      1.0938022    
    246000   298.12072      378.27097      29168.583      131660.96      1.0936647    
    248000   297.65358      1509.5047      31270.646      132218.03      1.0890568    
    250000   299.23562     -1100.4464      26431.431      131567.43      1.0944422    
    252000   299.54293      1446.783       31349.43       131759.32      1.0928482    
    254000   302.45352      10.225643      28746.417      131624.03      1.0939716    
    256000   302.01525     -505.1294       27472.665      131644.85      1.0937986    
    258000   298.36022     -33.398804      28478.802      132459.33      1.0870729    
    260000   296.06884      515.88258      29491.838      131637.31      1.0938612    
    262000   303.63111     -10.270384      28665.018      131446.86      1.0954461    
    264000   295.94351      253.5543       28905.667      131598.1       1.0941871    
    266000   296.10516     -16.873174      28423.001      131506.18      1.094952     
    268000   303.09876     -302.95544      28172.699      132025.15      1.0906478    
    270000   297.61303      277.61606      29050.225      131037.98      1.0988642    
    272000   303.79773      10.136664      28512.677      131644.01      1.0938055    
    274000   298.34621     -189.60876      28018.844      131437.5       1.0955241    
    276000   303.56464      337.57342      29250.43       130879.19      1.1001974    
    278000   304.58794     -519.36437      27688.009      131718.13      1.09319      
    280000   291.8403       37.531039      28454.5        131984.69      1.0909822    
    282000   302.08655     -239.06052      28083.322      131236.66      1.0972006    
    284000   301.37146      187.61077      28990.303      130845.28      1.1004825    
    286000   299.69288     -972.0537       26508.739      131509.9       1.0949209    
    288000   297.03123     -889.69372      26703.79       131822.52      1.0923243    
    290000   299.01127      192.48241      28869.614      131351.98      1.0962373    
    292000   299.36044     -598.96851      27333.168      132397.75      1.0875785    
    294000   298.05476      463.89242      29255.931      131511.38      1.0949086    
    296000   295.44038      895.26266      30210.656      130964.71      1.099479     
    298000   298.759        109.41621      28695.21       131851.83      1.0920815    
    300000   298.03611      1614.4947      31596.769      130995.02      1.0992245    
    302000   302.45865      162.06518      28910.817      132202.26      1.0891867    
    304000   302.95058      89.564696      28649.966      131508.3       1.0949343    
    306000   300.50234     -29.344176      28553.093      132166.04      1.0894852    
    308000   304.14535     -282.03857      28017.367      131405.53      1.0957906    
    310000   299.05354      763.0032       30002.012      132149.7       1.0896199    
[...]
     82000   897.82425      1212.5031      70901.096      152684.43      0.94307551   
     84000   905.94669      1079.3038      70996.391      153878.82      0.93575542   
     86000   902.35728     -432.09452      66615.194      151560.59      0.95006852   
     88000   890.09082      902.27019      69530.092      151036.96      0.95336231   
     90000   887.31528      158.20783      68072.466      151375.12      0.95123255   
     92000   904.65184     -878.18494      66165.332      153529.12      0.93788687   
     94000   905.33637     -241.07595      67526.153      151597.24      0.94983883   
     96000   906.60003     -1135.7745      65562.962      151293.33      0.95174679   
     98000   896.79173     -1653.0783      64047.246      152288.76      0.94552574   
    100000   898.06599     -1810.9185      64165.299      152285.9       0.94554354   
    102000   891.19199      2351.0449      72905.787      151970.5       0.94750593   
    104000   895.66406      1001.3944      70237.876      153338.69      0.93905165   
    106000   898.61058     -462.43088      67228.215      151730.68      0.94900347   
    108000   899.1748       794.00744      69472.2        150323.56      0.95788674   
    110000   890.82753      518.62816      68616.427      148195.33      0.9716429    
    112000   901.98638      163.33749      68405.266      151390.92      0.95113333   
    114000   903.54468     -878.40862      65934.227      147583.12      0.97567353   
    116000   897.64296      423.37857      68485.236      149201.1       0.96509305   
    118000   891.50706      587.1413       68983.289      148197.52      0.97162857   
    120000   894.03825      264.29677      68566.821      148353.44      0.97060738   
    122000   887.21335     -687.90148      66164.939      151773.11      0.94873818   
    124000   894.47112      1046.1976      70175.763      148621.89      0.96885424   
    126000   898.11279      928.83859      70100.475      150759.89      0.95511442   
    128000   894.53801      746.90421      69410.876      151587.69      0.94989869   
    130000   894.53886      1087.2264      70011.026      151899.34      0.9479498    
    132000   895.46918      1459.5376      70945.111      150987.46      0.95367484   
    134000   897.59372     -721.48053      66539.624      152777.25      0.94250251   
    136000   901.79906      2500.3009      73361.183      151260.83      0.95195132   
    138000   905.14369      382.71219      68954.291      148446.98      0.96999576   
    140000   903.18203     -20.336272      68041.303      152757.23      0.94262602   
    142000   905.17044      424.54199      69065.944      151392.21      0.95112522   
    144000   898.06557     -2300.9208      63067.424      150686.05      0.95558248   
    146000   886.00583     -658.48682      66485.771      152321.21      0.94532434   
    148000   903.87565      4.0124623      67772.528      151286.44      0.95179018   
    150000   893.60166      49.510483      67997.037      151297.39      0.95172127   
    152000   906.23289      486.18417      69169.965      150355.49      0.9576833    
    154000   896.45637      391.66243      68419.073      149559.17      0.96278249   
    156000   893.06326      56.094713      67624.961      148085.72      0.97236214   
    158000   901.44572     -330.57308      67376.494      151478.88      0.95058099   
    160000   898.70766     -1085.2088      65584.575      149035.07      0.96616823   
    162000   894.3401      -912.25147      65489.948      148918.54      0.96692421   
    164000   898.05617      1094.0805      70166.761      151816.94      0.94846429   
    166000   902.04717     -150.0423       67672.39       152124.94      0.94654397   
    168000   903.0548      -339.52335      67677.07       152744.43      0.94270507   
    170000   894.39539     -284.39982      67556.755      151400.47      0.95107331   
    172000   885.59007      1026.23        69785.239      154999.13      0.92899195   
    174000   897.05983      1155.1842      70232.537      150878.34      0.95436462   
    176000   889.1658      -1240.9758      64901.025      151637.7       0.94958537   
    178000   905.16532     -493.44024      67385.469      153459.33      0.93831341   
    180000   904.95438     -1065.4961      66405.533      151843.02      0.94830139   
    182000   896.51494      2106.2729      71902.559      148459.3       0.96991529   
    184000   903.84876     -286.1965       67697.685      150364.01      0.95762903   
    186000   912.72009      1548.5452      71823.551      148478.93      0.96978709   
    188000   903.27121     -389.59538      67561.263      149905.65      0.96055716   
    190000   909.37035      43.51381       68717.848      148389.07      0.97037434   
    192000   906.25615     -78.688855      67427.846      149841.88      0.96096593   
    194000   899.24459      408.16212      68696.827      151706.69      0.94915356   
    196000   892.23512      528.55993      68876.073      151714.63      0.94910391   
    198000   903.72245     -151.23547      67804.067      150114.61      0.95922007   
    200000   902.09611      1403.8854      71146.396      151884.29      0.94804369   
    202000   892.67801     -234.82288      67315.5        151186.79      0.95241751   
    204000   897.29342      2298.4847      72867.528      150685.08      0.95558858   
    206000   890.1973       1948.312       72052.591      152258.29      0.94571498   
    208000   901.66348      289.90077      68177.894      151611.31      0.94975065   
    210000   894.02192     -400.89142      67113.639      150782.54      0.95497097   
    212000   913.3504       630.99549      69564.703      149562.87      0.96275863   
    214000   896.02199      46.554778      68043.753      151091.62      0.95301744   
    216000   910.12476     -228.16843      67558.781      152057.73      0.94696235   
    218000   907.01694     -264.87512      67453.903      150593.05      0.95617258   
    220000   900.80006     -557.1895       66903.941      150462.75      0.9570006    
    222000   907.77075      110.21726      68630.393      152245.67      0.94579338   
    224000   899.0946      -1044.8766      65775.286      149302.29      0.96443896   
    226000   890.53976      970.08791      69378.728      153426.18      0.93851611   
    228000   901.18818     -919.28796      65954.967      151146.9       0.95266888   
    230000   888.9466      -223.86293      67131.896      151886.94      0.94802713   
    232000   896.27162     -589.7827       66541.32       149135.74      0.96551603   
    234000   908.7287      -39.601946      67870.549      151715.9       0.94909593   
    236000   898.29716      1163.6645      70482.449      149373.41      0.96397977   
    238000   892.95756      1290.5345      70004.514      148183.41      0.97172109   
    240000   896.91294      690.02076      69573.413      151212.13      0.9522579    
    242000   907.61882     -618.59719      67082.82       151502.87      0.95043049   
    244000   905.08925     -1173.7873      65839.588      152408.63      0.94478207   
    246000   906.85559      733.87464      69752.76       151494.7       0.95048172   
    248000   905.62859     -1419.5104      64899.428      150380.64      0.95752316   
    250000   901.95081      134.07718      68136.323      149484.9       0.96326081   
    252000   898.77085      794.66506      69512.965      148251.69      0.97127352   
    254000   888.13922      1394.4025      70718.654      148873.51      0.96721669   
    256000   888.80468     -588.76613      66283.346      149774.26      0.96139982   
    258000   899.44785      457.5795       68427.636      148875.08      0.96720653   
    260000   898.17179      398.97466      68823.842      147638.11      0.97531015   
    262000   900.17398     -722.51444      66100.505      151487.28      0.95052829   
    264000   902.49356     -327.67734      67148.287      150973.65      0.95376213   
    266000   897.53857     -116.87013      67724.014      150534.11      0.95654695   
    268000   903.4282       419.74035      69088.522      150390.45      0.95746073   
    270000   898.23803      298.9087       68493.119      148615.35      0.96889687   
    272000   905.45416      1789.0346      71671.035      148629.07      0.96880742   
    274000   902.54213     -707.84916      66803.757      150142.21      0.9590437    
    276000   899.63168      148.24273      68360.897      150390.64      0.95745951   
    278000   905.91553      903.73654      70317.023      150461.95      0.95700569   
    280000   890.3686       942.17493      69485.883      150184.79      0.95877181   
    282000   905.64485      45.465962      67845.2        150580.41      0.95625283   
    284000   911.62724      1690.8181      71766.93       149947.97      0.96028603   
    286000   901.03555      427.34863      69312.93       147617.18      0.97544845   
    288000   905.80524      609.84915      69459.079      149391.38      0.96386382   
    290000   891.22008     -259.76007      66989.48       148381.08      0.9704266    
    292000   899.93717      355.10219      68739.664      149169.49      0.96529757   
    294000   898.15271     -1039.0317      65258.354      147421.52      0.97674307   
    296000   892.22571      764.77291      69187.462      147670.75      0.97509456   
    298000   893.60307      461.37244      68610.404      149976.46      0.96010365   
    300000   902.41508      652.25809      69089.18       148221.18      0.97147351   
    302000   904.66245     -207.48458      67527.619      149778.92      0.96136991   
    304000   893.98422     -1531.1072      64833.466      151849.82      0.9482589    
    306000   898.98101      636.95108      69154.72       149838.77      0.96098592   
    308000   898.14545      1804.2719      72030.065      149987.58      0.96003243   
    310000   910.70296     -1730.9842      64133.28       151213.41      0.95224985   
    312000   910.38043      405.41674      69342.608      150645.38      0.95584043   
    314000   906.6258       277.28377      68944.948      150408.5       0.95734581   
    316000   905.75169      941.78754      70600.989      150023.17      0.95980469   
    318000   906.1925       773.19966      70334.854      150886.38      0.95431373   
    320000   907.86555      423.96244      69158.295      151706.51      0.94915468   
    322000   894.29458     -246.04839      67039.922      151216.43      0.95223083   
    324000   900.73429     -110.87166      67907.951      152445.75      0.94455202   
    326000   905.39166      81.691976      68724.311      150362.45      0.957639     
    328000   902.1393       665.37131      70242.272      153320.04      0.93916586   
    330000   901.23508      971.75519      70212.397      150625.47      0.95596677   
    332000   893.00687      1028.3458      70346.578      153673.99      0.93700269   
    334000   885.48903      1230.9545      70823.047      152639.63      0.94335232   
    336000   903.00781     -603.35243      67189.764      154314.91      0.93311104   
    338000   895.81237      354.50855      68316.875      150634.37      0.95591031   
    340000   895.94443      279.78955      68172.375      149875.09      0.96075305   
    342000   913.17926     -526.95311      67104.214      150353.44      0.9576964    
    344000   900.74418      609.93751      69667.103      149997.21      0.95997083   
    346000   897.82316      1781.7239      71912.125      151991.3       0.94737626   
    348000   899.4878       485.08061      68852.818      152743.8       0.94270892   
    350000   892.17007     -375.26835      66712.851      150725.9       0.95532983   
    352000   903.73392     -832.84309      66211.411      149189.38      0.96516888   
    354000   892.03661      515.8085       68879.045      149703.22      0.96185605   
    356000   896.37221      264.68763      68544.95       151067.13      0.95317189   
    358000   901.49479     -304.981        66863.592      152187.6       0.94615423   
    360000   888.36304      532.82486      68688.132      151110.39      0.95289906   
    362000   907.78728      1017.7255      70202.448      148871.13      0.96723218   
    364000   902.47273      137.13574      67958.13       150715.38      0.95539647   
    366000   898.64598      2845.2146      73879.17       151198.19      0.95234571   
    368000   897.81593     -357.72864      66694.203      149066.33      0.96596556   
    370000   895.2349       245.44719      68369.551      151174.69      0.95249374   
    372000   908.43514     -616.79372      66874.005      150116.54      0.95920775   
    374000   906.93756      648.32314      69493.755      150176.13      0.95882713   
    376000   907.6969      -1528.8777      64376.241      148720.27      0.96821329   
    378000   897.25736      73.365904      67415.369      149265.65      0.96467568   
    380000   906.25483     -43.323486      68102.708      149219.75      0.96497245   
    382000   900.29816     -826.05655      66128.941      149512.94      0.96308018   
    384000   889.25816      1193.658       69805.367      150072.04      0.95949213   
    386000   903.3104       896.25295      69820.04       151632.03      0.94962088   
    388000   893.44913     -231.29063      67152.226      152712.76      0.94290055   
    390000   903.16062      584.97881      69265.957      149232.89      0.96488746   
    392000   898.49779      505.71093      69075.101      149304.48      0.96442484   
    394000   908.71958     -619.45982      66880.478      150281.39      0.95815556   
    396000   900.68748     -1690.695       64327.619      149553.92      0.96281627   
    398000   910.71117      1084.6826      70472.511      150304.25      0.95800983   
    400000   904.40604      1029.057       69969.662      148883.66      0.96715078   
    402000   889.34495     -61.870584      67736.357      150233.08      0.95846367   
    404000   900.77502     -1162.97        65069.275      149482.39      0.96327696   
    406000   904.97198     -1313.8827      65384.312      150827.47      0.95468649   
    408000   902.23999     -1301.4066      65436.957      150613.68      0.95604164   
    410000   896.49186     -1141.544       65035.317      151409.78      0.95101483   
    412000   915.78916      515.21299      69501.522      150073.97      0.95947981   
    414000   891.80779      535.46983      69260.479      150392.77      0.95744594   
    416000   898.34315     -376.85562      66851.077      149420.09      0.96367859   
    418000   904.29841     -328.73732      67201.279      150170.15      0.95886529   
    420000   893.09557      381.41694      68664.692      149865.86      0.96081222   
    422000   903.06905     -937.14302      65721.815      149791.38      0.96128996   
    424000   908.65895     -1038.1875      66173.927      151100.7       0.95296013   
    426000   903.62423     -306.19292      67380.366      149006.14      0.9663558    
    428000   894.1588      -210.39751      67131.704      149595.99      0.96254551   
    430000   892.30888      135.90362      68044.851      148518.64      0.96952774   
    432000   908.19582      719.88465      69376.275      151873.71      0.94810974   
    434000   894.58139     -620.93331      66244.625      150669.92      0.95568473   
    436000   905.76215     -899.30223      66368.567      153467.3       0.93826464   
    438000   914.4476       664.92213      70092.41       150965.09      0.95381621   
    440000   905.65989      1372.9004      71276.667      150903.91      0.95420285   
    442000   905.31751     -383.17606      67144.818      149745.59      0.9615839    
    444000   899.02002     -161.67165      67432.598      151288.35      0.95177812   
    446000   908.67418     -677.27757      66827.34       153119.47      0.94039602   
    448000   894.43476     -2571.1962      62319.75       153029.47      0.94094915   
    450000   902.36891      1694.763       71828.931      151463.24      0.95067913   
    452000   894.27018      705.65773      69020.425      149587.98      0.96259703   
    454000   905.28286      299.66735      68460.547      149785.83      0.96132553   
    456000   906.3051      -1138.7552      65626.74       147889.44      0.97365263   
    458000   898.64539     -797.98876      66274.62       150819.88      0.9547345    
    460000   900.92777      437.39897      68674.844      149123.7       0.96559394   
    462000   912.34309      371.4096       68592.378      146733.54      0.98132266   
    464000   895.73353     -770.07172      66134.885      150052.33      0.95961817   
    466000   906.46397      480.99094      69313.799      149937.45      0.96035346   
    468000   898.03409     -958.63711      65856.319      148973.99      0.96656433   
    470000   911.01991     -1123.9876      66274.512      151305.67      0.95166917   
    472000   889.66567      174.6161       67984.446      149966.09      0.96017002   
    474000   886.82066     -706.59366      66192.71       149834.44      0.96101365   
    476000   904.18023      888.59309      70152.736      149173.53      0.96527141   
    478000   923.54172      1427.2573      71615.023      150018.05      0.95983748   
    480000   906.83985      1155.9938      70716.333      150865.37      0.95444663   
    482000   897.37989      740.78313      69221.874      149116.68      0.96563945   
    484000   895.62062      1440.6402      71100.254      149816.85      0.96112651   
    486000   897.28226      497.6664       69347.667      151758.71      0.94882821   
    488000   893.58239     -511.41736      66464.145      150410.79      0.9573312    
    490000   907.29473      714.79132      69668.399      149248.56      0.96478617   
    492000   897.84438      900.1923       70205.405      153086.94      0.94059586   
    494000   889.97166     -756.1266       65469.742      149605.96      0.96248137   
    496000   898.37034      58.535007      67730.032      151739.23      0.94895002   
    498000   904.04281     -268.56938      67521.741      152062.08      0.94693528   
    500000   901.61305      349.45243      68576.604      150261.36      0.95828328   
Loop time of 1326.87 on 32 procs for 500000 steps with 10420 atoms

Performance: 32.558 ns/day, 0.737 hours/ns, 376.826 timesteps/s, 3.927 Matom-step/s
100.0% CPU use with 32 MPI tasks x no OpenMP threads

MPI task timing breakdown:
Section |  min time  |  avg time  |  max time  |%varavg| %total
---------------------------------------------------------------
Pair    | 606.98     | 663.5      | 727.19     | 112.4 | 50.01
Bond    | 204.69     | 236.52     | 251.22     | 108.2 | 17.83
Kspace  | 149.31     | 226.57     | 314.39     | 280.5 | 17.08
Neigh   | 146.71     | 146.76     | 146.8      |   0.3 | 11.06
Comm    | 40.439     | 41.309     | 42.126     |   6.4 |  3.11
Output  | 0.0048211  | 0.0059478  | 0.039717   |   7.9 |  0.00
Modify  | 8.7642     | 9.1936     | 9.5459     |   7.4 |  0.69
Other   |            | 3          |            |       |  0.23

Nlocal:        325.625 ave         372 max         281 min
Histogram: 2 1 4 5 7 2 5 1 3 2
Nghost:        6133.66 ave        6305 max        5991 min
Histogram: 1 4 4 7 3 4 3 4 0 2
Neighs:         129845 ave      154375 max      102864 min
Histogram: 2 0 6 2 4 5 5 4 2 2

Total # of neighbors = 4155040
Ave neighs/atom = 398.75624
Ave special neighs/atom = 5.6065259
Neighbor list builds = 46493
Dangerous builds = 0

variable H equal enthalpy
variable V equal vol
print "${T} ${H} ${V}" append H_T.dat
900 68576.6037581694 150261.355598743

unfix NPT

variable T equal ${T}+${dT}
variable T equal 900+${dT}
variable T equal 900+10
jump SELF loop_T
if "${T} > ${T_end}" then "jump SELF end_loop"
jump SELF end_loop

print "Heating scan finished."
Heating scan finished.
Total wall time: 22:58:27
