LAMMPS (22 Jul 2025)
units           real
atom_style      full
boundary        p p p

# Force field settings
pair_style      lj/cut 10.0
bond_style      harmonic
angle_style     harmonic
dihedral_style  hybrid charmm fourier
improper_style  cvff

read_data       lammps.txt
Reading data file ...
  orthogonal box = (0 0 0) to (38.65 38.65 38.65)
  4 by 4 by 4 MPI processor grid
WARNING: Pair style Atom-ID	Epsilon(kcal/mol)	Sigma(Å)	AtomName in data file differs from currently defined pair style lj/cut (../read_data.cpp:811)
WARNING: Atom style in data file Atom-ID	Molecule-ID	Atom-type	Charge	x	y	z	nx	ny	nz differs from currently defined atom style full (../read_data.cpp:727)
  reading atoms ...
  4506 atoms
  reading velocities ...
  4506 velocities
  scanning bonds ...
  3 = max bonds/atom
  scanning angles ...
  6 = max angles/atom
  scanning dihedrals ...
  8 = max dihedrals/atom
  scanning impropers ...
  1 = max impropers/atom
  orthogonal box = (0 0 0) to (38.65 38.65 38.65)
  4 by 4 by 4 MPI processor grid
  reading bonds ...
  4863 bonds
  reading angles ...
  7920 angles
  reading dihedrals ...
  11988 dihedrals
  reading impropers ...
  300 impropers
Finding 1-2 1-3 1-4 neighbors ...
  special bond factors lj:    0        0        0       
  special bond factors coul:  0        0        0       
     4 = max # of 1-2 neighbors
     7 = max # of 1-3 neighbors
    14 = max # of 1-4 neighbors
    16 = max # of special neighbors
  special bonds CPU = 0.005 seconds
  read_data CPU = 0.083 seconds

minimize 1e-6 1e-6 2000 20000
Generated 21 of 21 mixed pair_coeff terms from geometric mixing rule
Neighbor list info ...
  update: every = 1 steps, delay = 0 steps, check = yes
  max neighbors/atom: 2000, page size: 100000
  master list distance cutoff = 12
  ghost atom cutoff = 12
  binsize = 6, bins = 7 7 7
  1 neighbor lists, perpetual/occasional/extra = 1 0 0
  (1) pair lj/cut, perpetual
      attributes: half, newton on
      pair build: half/bin/newton
      stencil: half/bin/3d
      bin: standard
Per MPI rank memory allocation (min/avg/max) = 12.89 | 12.9 | 13.09 Mbytes
   Step          Temp          E_pair         E_mol          TotEng         Press     
         0   0             -1931.6608      57990.643      56058.982     -103732.16    
      2000   0             -3352.3141      33785.198      30432.884     -2052.1533    
Loop time of 1.56162 on 64 procs for 2000 steps with 4506 atoms

96.7% CPU use with 64 MPI tasks x no OpenMP threads

Minimization stats:
  Stopping criterion = max iterations
  Energy initial, next-to-last, final = 
      56058.9823711684   30432.9285479874   30432.8835521971
  Force two-norm initial, final = 6581.6797 9.6990215
  Force max component initial, final = 263.65145 1.1615162
  Final line search alpha, max atom move = 0.0073162173 0.0084979049
  Iterations, force evaluations = 2000 3997

MPI task timing breakdown:
Section |  min time  |  avg time  |  max time  |%varavg| %total
---------------------------------------------------------------
Pair    | 0.14275    | 0.63174    | 0.9405     |  20.5 | 40.45
Bond    | 0.016501   | 0.043821   | 0.062527   |   4.4 |  2.81
Neigh   | 0.028928   | 0.029139   | 0.029267   |   0.1 |  1.87
Comm    | 0.4045     | 0.74212    | 1.2579     |  19.8 | 47.52
Output  | 0.00035354 | 0.00035744 | 0.00056498 |   0.0 |  0.02
Modify  | 0          | 0          | 0          |   0.0 |  0.00
Other   |            | 0.1144     |            |       |  7.33

Nlocal:        70.4062 ave          97 max          22 min
Histogram: 1 2 3 6 4 6 8 13 17 4
Nghost:        2890.36 ave        3017 max        2740 min
Histogram: 2 2 3 7 13 13 9 9 2 4
Neighs:        19866.1 ave       29802 max        4537 min
Histogram: 2 3 5 2 6 7 15 11 10 3

Total # of neighbors = 1271433
Ave neighs/atom = 282.16445
Ave special neighs/atom = 10.462051
Neighbor list builds = 44
Dangerous builds = 0

# =====================================================
# Dump trajectory for relaxation only
# =====================================================

dump 1 all custom 5000 pef.xyz id type x y z
dump_modify 1 sort id

timestep 1.0

# ---------------- 升温 ----------------
velocity all create 300.0 928374 dist gaussian mom yes rot yes

fix HEAT all npt temp 300.0 800.0 100.0 iso 1.0 1.0 1000.0
thermo_style custom step temp press pe etotal enthalpy vol density
thermo 1000
run 500000
Generated 21 of 21 mixed pair_coeff terms from geometric mixing rule
Per MPI rank memory allocation (min/avg/max) = 11.78 | 11.85 | 12.44 Mbytes
   Step          Temp          Press          PotEng         TotEng        Enthalpy        Volume        Density    
      2000   300            1137.4355      30432.884      34461.448      35419.196      57736.24       1.1005255    
      3000   301.20143     -1168.2672      34522.98       38567.678      37640.591      54413.002      1.1677393    
      4000   307.75114     -221.3061       34368.473      38501.124      38333.482      51941.43       1.2233049    
      5000   304.31152      509.96717      34258.777      38345.24       38729.523      51669.362      1.2297462    
      6000   300.52415      340.61994      34429.502      38465.105      38718.68       51045.783      1.2447689    
      7000   303.69639      172.18834      34383.083      38461.285      38588.186      50534.056      1.2573739    
      8000   304.49666      1014.4835      34261.57       38350.518      39099.178      50601.499      1.255698     
      9000   308.29571      183.78234      34341.239      38481.203      38616.237      50380.528      1.2612056    
     10000   309.52729      505.32321      34324.464      38480.967      38848.711      49900.031      1.27335      
     11000   306.58083     -994.23498      34122.155      38239.091      37521.321      49501.717      1.2835959    
     12000   306.36845     -170.26738      34277.453      38391.536      38267.232      50058.634      1.2693155    
     13000   321.4936      -1040.3927      34312.711      38629.904      37873.639      49842.628      1.2748165    
     14000   312.01273     -411.39461      34348.054      38537.933      38240.422      49586.933      1.2813901    
     15000   311.63709      251.00389      34399.291      38584.125      38765.941      49667.825      1.2793031    
     16000   318.01832     -1237.9685      34333.932      38604.457      37717.486      49127.367      1.2933769    
     17000   310.81367      1222.2338      34275.292      38449.069      39332.915      49584.592      1.2814506    
     18000   316.62433      1482.3693      34370.17       38621.975      39694.825      49625.691      1.2803893    
     19000   313.93639     -2.7329518      34382.218      38597.929      38595.956      49497.553      1.2837039    
     20000   317.07906      987.23916      34252.18       38510.091      39213.069      48825.133      1.3013831    
     21000   320.99498      823.04107      34354.664      38665.161      39250.796      48789.844      1.3023244    
     22000   311.48733     -717.45144      34260.906      38443.729      37935.968      48527.843      1.3093556    
     23000   320.92031     -650.58393      34446.836      38756.33       38290.195      49128.473      1.2933478    
     24000   319.76635      729.00414      34373.181      38667.179      39185.748      48775.318      1.3027122    
     25000   322.50534     -1578.0446      34394.14       38724.919      37606.818      48583.162      1.3078647    
     26000   332.47166      1215.0352      34284.35       38748.962      39609.751      48577.121      1.3080273    
     27000   322.32332     -822.56688      34396.893      38725.227      38143.845      48463.516      1.3110936    
     28000   330.5877      -153.18107      34399.512      38838.825      38730.111      48663.485      1.305706     
     29000   324.26183     -590.65163      34487.811      38842.177      38424.707      48463.851      1.3110845    
     30000   336.68897      81.734567      34364.265      38885.51       38942.989      48220.622      1.3176977    
     31000   317.35565     -220.17011      34358.161      38619.787      38464.956      48219.368      1.317732     
     32000   323.60516     -125.99265      34558.141      38903.689      38814.644      48460.639      1.3111714    
     33000   327.42786     -1073.1021      34486.888      38883.769      38119.68       48823.263      1.3014329    
     34000   337.28821      1395.8546      34460.8        38990.092      39984.295      48838.118      1.3010371    
     35000   333.68553     -677.16847      34476.564      38957.477      38475.507      48803.108      1.3019704    
     36000   334.47628      319.80394      34584.681      39076.212      39304.074      48855.412      1.3005766    
     37000   329.62739     -2106.2651      34627.458      39053.876      37532.805      49517.699      1.2831817    
     38000   333.08331     -7.506749       34565.458      39038.284      39032.963      48603.411      1.3073198    
     39000   334.06445      869.49389      34601.01       39087.011      39703.461      48613.276      1.3070545    
     40000   330.6571      -839.84513      34435.084      38875.329      38279.297      48662.53       1.3057316    
     41000   343.49237     -2421.7192      34581.105      39193.709      37477.23       48600.294      1.3074037    
     42000   347.45925      426.17109      34629.084      39294.958      39597.737      48715.38       1.3043151    
     43000   345.09598     -1030.017       34589.343      39223.481      38487.433      48998.907      1.2967678    
     44000   343.45751     -772.7064       34552.719      39164.855      38622.803      48100.613      1.3209853    
     45000   340.46017     -2295.3003      34687.973      39259.859      37624.837      48843.674      1.3008891    
     46000   333.44818     -639.90357      34580.038      39057.763      38608.335      48158.127      1.3194077    
     47000   342.31111      261.41825      34684.106      39280.847      39464.469      48162.736      1.3192814    
     48000   341.12071      1196.2995      34620.252      39201.008      40051.019      48720.176      1.3041866    
     49000   345.71193      2441.1566      34662.184      39304.594      41029.829      48459.263      1.3112086    
     50000   350.75375     -826.54038      34752.125      39462.239      38875.575      48668.667      1.305567     
     51000   350.42405     -748.4006       34693.963      39399.65       38868.466      48667.045      1.3056105    
     52000   350.82579      1061.3445      34657.105      39368.186      40118.328      48463.087      1.3111051    
     53000   358.30651      400.34072      34700.589      39512.126      39795.494      48533.888      1.3091925    
     54000   355.35869      2010.5057      34661.222      39433.173      40844.181      48122.482      1.320385     
     55000   355.1161       159.54619      34833.554      39602.248      39715.882      48836.857      1.3010707    
     56000   349.24416      1278.3664      34780.121      39469.963      40379.361      48777.852      1.3026446    
     57000   361.54442      1045.3033      34822.589      39677.606      40414.846      48360.44       1.313888     
     58000   356.77497      993.82139      34767.863      39558.833      40258.246      48255.811      1.3167368    
     59000   353.50057     -111.88795      34711.227      39458.227      39379.142      48465.577      1.3110378    
     60000   358.67564     -249.61517      34814.997      39631.49       39454.429      48637.997      1.3063902    
     61000   360.60813     -713.4229       34929.431      39771.875      39262.571      48950.175      1.2980588    
     62000   362.47056      537.62926      34875.306      39742.76       40124.283      48658.81       1.3058314    
     63000   360.14661     -1096.753       34822.652      39658.899      38879.344      48737.357      1.3037269    
     64000   368.47421     -139.00212      34928.658      39876.732      39777.053      49170.779      1.292235     
     65000   363.17288     -1400.8609      34867.689      39744.574      38746.035      48875.819      1.3000335    
     66000   370.61333     -645.75952      34911.523      39888.322      39429.116      48759.65       1.3031308    
     67000   361.92874     -425.41382      34864.543      39724.721      39419.938      49125.156      1.2934351    
     68000   363.42193      763.3654       34932.37       39812.599      40357.153      48913.877      1.299022     
     69000   365.31038     -166.96742      34966.58       39872.169      39752.69       49066.314      1.2949863    
     70000   376.62996      1080.8796      34954.533      40012.126      40780.574      48748.479      1.3034295    
     71000   366.58273     -124.98802      35026.34       39949.014      39860.005      48830.401      1.3012427    
     72000   367.0816       693.66038      35082.14       40011.513      40506.849      48964.009      1.297692     
     73000   379.62506      1893.97        35031.039      40128.853      41461.459      48245.036      1.3170309    
     74000   366.85982     -760.91653      34998.047      39924.443      39384.823      48626.7        1.3066937    
     75000   377.41897      1341.7079      35050.109      40118.299      41077.165      49003.187      1.2966545    
     76000   373.68242      1523.3053      35157.036      40175.049      41262.591      48953.452      1.2979719    
     77000   368.26098      251.03571      35101.936      40047.147      40225.235      48643.414      1.3062447    
     78000   382.59347     -1563.2403      35005.81       40143.486      39021.222      49225.864      1.290789     
     79000   379.70014      1279.223       35212.878      40311.7        41223.914      48896.146      1.2994931    
     80000   376.78394      575.82076      35203.138      40262.8        40672.632      48802.577      1.3019846    
     81000   381.5573       2340.1255      35128.34       40252.101      41929.897      49161.399      1.2924816    
     82000   379.54479     -335.77198      35040.472      40137.208      39899.375      48568.285      1.3082653    
     83000   385.63737      1123.9547      35188.97       40367.52       41160.858      48398.673      1.3128501    
     84000   381.87324      147.43771      35096.787      40224.79       40329.238      48575.23       1.3080783    
     85000   384.96438     -1376.5437      35123.677      40293.191      39310.578      48945.912      1.2981718    
     86000   385.16941     -129.81147      35254.99       40427.257      40334.538      48975.431      1.2973894    
     87000   379.22114     -1080.0465      35290.028      40382.418      39607.683      49185.245      1.291855     
     88000   390.19351      2568.0449      35242.405      40482.138      42310.497      48818.337      1.3015643    
     89000   392.09121      1153.3445      35217.567      40482.784      41303.688      48804.265      1.3019396    
     90000   383.32458     -504.26877      35258.014      40405.507      40046.707      48788.143      1.3023698    
     91000   391.941       -35.411865      35244.736      40507.935      40482.732      48800.47       1.3020408    
     92000   390.24983     -708.5382       35171.264      40411.753      39912.733      48292.384      1.3157396    
     93000   391.86305     -1144.0657      35267.822      40529.974      39717.419      48699.647      1.3047364    
     94000   389.64212      617.0843       35284.884      40517.212      40956.04       48761.207      1.3030892    
     95000   393.98265      439.39792      35369.807      40660.422      40974.131      48954.459      1.2979451    
     96000   386.30408     -1334.952       35506.73       40694.233      39734.958      49272.153      1.2895763    
     97000   388.37958     -1604.6198      35373.958      40589.333      39427.463      49648.895      1.2797909    
     98000   405.43571      67.91818       35379.944      40824.357      40872.587      48691.848      1.3049454    
     99000   393.99251      1421.3508      35358.903      40649.651      41661.155      48796.691      1.3021416    
    100000   402.37046      498.85939      35347.017      40750.268      41106.776      49002.178      1.2966812    
    101000   410.07994      1179.8569      35368.301      40875.079      41716.325      48889.724      1.2996638    
    102000   397.93159     -1445.8826      35333.999      40677.643      39652.717      48605.296      1.3072691    
    103000   396.29123     -212.98916      35429.173      40750.789      40599.569      48682.868      1.3051861    
    104000   400.7961      -1189.1279      35530.484      40912.594      40070.952      48531.401      1.3092596    
    105000   401.93226      67.411525      35400.913      40798.28       40846.072      48612.69       1.3070703    
    106000   406.97928      464.03407      35522.17       40987.311      41317.414      48777.957      1.3026417    
    107000   407.38953     -1674.8795      35480.633      40951.283      39751.379      49123.266      1.2934849    
    108000   403.44676     -805.0555       35480.577      40898.281      40324.986      48828.859      1.3012838    
    109000   405.49404     -1475.3434      35515.709      40960.906      39915.358      48593.146      1.307596     
    110000   415.25826     -2157.1666      35577.945      41154.261      39625.235      48602.12       1.3073545    
    111000   407.44765      552.1289       35400.646      40872.077      41266.001      48921.11       1.2988299    
    112000   411.25983      928.87733      35573.613      41096.236      41757.932      48845.416      1.3008427    
    113000   406.48985     -1022.6567      35656.166      41114.735      40385.292      48908.609      1.2991619    
    114000   403.68767     -1317.5458      35534.597      40955.537      40017.69       48807.905      1.3018425    
    115000   415.87411      1327.5104      35604.452      41189.038      42138.028      49017.099      1.2962865    
    116000   418.62363      409.63096      35556.415      41177.923      41469.557      48816.839      1.3016042    
    117000   416.95405      843.12986      35667.856      41266.944      41872.353      49235.553      1.290535     
    118000   422.46733     -521.78302      35756.625      41429.749      41055.487      49182.341      1.2919313    
    119000   408.65682     -515.80752      35669.752      41157.42       40786.81       49266.69       1.2897193    
    120000   413.13894      1683.6781      35699.952      41247.808      42454.306      49135.04       1.2931749    
    121000   426.23135     -455.59889      35829.187      41552.856      41222.989      49645.545      1.2798772    
    122000   416.46964     -57.317511      35742.366      41334.95       41293.583      49486.569      1.2839888    
    123000   421.14278     -996.99555      35798.254      41453.591      40732.269      49608.909      1.2808224    
    124000   424.07315      884.07249      35697.209      41391.896      42031.101      49576.574      1.2816578    
    125000   430.57664      1831.3265      35810.042      41592.062      42917.929      49643.041      1.2799418    
    126000   432.59124     -627.44284      35691.9        41500.973      41050.261      49254.851      1.2900293    
    127000   416.71345     -665.35951      35855.125      41450.982      40970.554      49510.402      1.2833708    
    128000   428.62175     -473.78982      35780.426      41536.194      41195.517      49303.926      1.2887453    
    129000   426.02984      610.24462      35848.31       41569.273      42011.009      49634.451      1.2801633    
    130000   437.21913     -1303.2817      35753.474      41624.692      40686.905      49338.953      1.2878304    
    131000   428.84773     -517.16378      35720.335      41479.138      41109.968      48946.545      1.298155     
    132000   423.00185      32.239437      35862.637      41542.938      41566.062      49182          1.2919402    
    133000   434.61149     -1143.3233      35887.033      41723.235      40898.885      49438.652      1.2852333    
    134000   428.17324     -886.84997      35678.754      41428.5        40782.299      49962.198      1.2717656    
    135000   434.98284      2056.8683      35956.889      41798.078      43295.291      49911.568      1.2730556    
    136000   438.57058     -41.83011       36018.536      41907.903      41877.646      49597.725      1.2811112    
    137000   434.57438      698.52229      35928.212      41763.916      42266.181      49303.431      1.2887582    
    138000   429.97643      1777.0089      35974.31       41748.27       43049.757      50219.752      1.2652433    
    139000   439.67471      234.47599      35966.267      41870.461      42040.799      49812.514      1.2755871    
    140000   444.54506     -1731.0214      36005.133      41974.728      40718.644      49755.409      1.2770512    
    141000   434.57213     -459.27332      35966.871      41802.544      41469.337      49747.047      1.2772658    
    142000   449.1879      -79.892122      35985.399      42017.341      41959.503      49639.492      1.2800333    
    143000   441.67206      762.47865      36024.681      41955.696      42508.568      49718.827      1.2779908    
    144000   435.02085     -3010.9941      36107.048      41948.747      39753.952      49981.378      1.2712775    
    145000   439.46621      1595.7808      36008.953      41910.347      43062.804      49519.416      1.2831372    
    146000   449.76258      400.71361      35984.665      42024.324      42315.63       49846.971      1.2747054    
    147000   443.14836      838.20515      36021.886      41972.725      42584.059      50009.457      1.2705637    
    148000   447.09176     -1560.0102      36096.705      42100.499      40964.881      49914.731      1.272975     
    149000   448.48057     -1313.7496      36084.911      42107.354      41153.187      49800.768      1.275888     
    150000   454.30561     -1970.9044      36229.319      42329.985      40875.39       50605.823      1.2555907    
    151000   446.20249      1459.4886      36135.589      42127.441      43186.581      49759.553      1.2769448    
    152000   443.33418      1030.3632      36236.304      42189.639      42934.96       49599.481      1.2810659    
    153000   459.4038      -279.00163      36187.411      42356.537      42152.383      50173.695      1.2664047    
    154000   461.77266      636.77792      36205.414      42406.351      42873.787      50333.59       1.2623817    
    155000   454.20206      1171.7445      36200.583      42299.857      43151.952      49863.061      1.2742941    
    156000   454.68548     -1318.167       36313.737      42419.504      41456.377      50099.921      1.2682695    
    157000   459.15917      895.78754      36297.55       42463.392      43114.998      49877.447      1.2739265    
    158000   449.26319     -1654.8475      36260.143      42293.096      41074.768      50481.28       1.2586884    
    159000   460.4252      -377.92228      36365.444      42548.286      42271.72       50178.897      1.2662734    
    160000   454.6886       823.18633      36225.035      42330.844      42936.696      50465.274      1.2590876    
    161000   457.10992      1092.7758      36325.812      42464.135      43260.977      49999.461      1.2708178    
    162000   445.94022     -65.657051      36234.467      42222.798      42174.849      50075.216      1.2688952    
    163000   462.46069     -1284.4016      36305.856      42516.032      41570.479      50478.817      1.2587499    
    164000   466.36965     -824.24154      36392.819      42655.487      42048.165      50522.879      1.2576521    
    165000   457.6892       1909.7274      36387.642      42533.744      43932.834      50234.051      1.2648831    
    166000   464.84949      279.65643      36502.096      42744.351      42948.947      50164.648      1.2666331    
    167000   467.32394     -1267.2971      36379.56       42655.043      41727.041      50210.477      1.265477     
    168000   466.98208      337.9836       36437.357      42708.249      42952.582      49569.016      1.2818532    
    169000   466.21338      1571.8793      36394.534      42655.103      43783.69       49231.151      1.2906504    
    170000   457.70156     -2259.4236      36426.674      42572.942      40937.013      49646.758      1.279846     
    171000   467.6148      -192.00912      36464.907      42744.295      42605.308      49633.604      1.2801852    
    172000   479.71929      1866.2105      36439.269      42881.203      44228.597      49506.021      1.2834843    
    173000   470.46903      783.13368      36464.775      42782.491      43354.259      50062.006      1.2692301    
    174000   477.32594     -374.41034      36389.641      42799.436      42527.708      49763.499      1.2768436    
    175000   461.62378      1265.5477      36650.176      42849.113      43769.211      49851.646      1.2745859    
    176000   471.22886     -2204.4938      36436.063      42763.983      41144.3        50378.486      1.2612567    
    177000   478.26738     -372.5622       36516.464      42938.901      42665.624      50295.377      1.2633408    
    178000   464.20738     -578.5724       36615.172      42848.804      42425.124      50211.629      1.265448     
    179000   477.35256     -896.2926       36625.757      43035.909      42378.923      50260.892      1.2642076    
    180000   472.98832     -2287.5093      36587.533      42939.079      41266.36       50139.989      1.267256     
    181000   466.9994      -1720.891       36651.209      42922.334      41659.168      50330.475      1.2624598    
    182000   480.86338      269.39964      36533.283      42990.581      43187.717      50175.571      1.2663573    
    183000   489.85986     -962.20191      36658.044      43236.151      42527.483      50501.136      1.2581935    
    184000   489.51224      2524.8642      36621.607      43195.046      45029.064      49806.919      1.2757304    
    185000   477.18277     -336.91993      36647.21       43055.082      42806.782      50532.849      1.2574039    
    186000   476.08991     -445.10985      36748.175      43141.371      42818.053      49806.643      1.2757375    
    187000   478.31965      340.7649       36456.594      42879.733      43127.237      49802.615      1.2758407    
    188000   489.05443      415.03532      36739.064      43306.356      43613.614      50762.465      1.2517163    
    189000   477.97205     -1807.0248      36800.831      43219.302      41901.073      50020.844      1.2702745    
    190000   491.69003     -92.246625      36719.243      43321.927      43253.942      50534.107      1.2573726    
    191000   487.91881     -215.61965      36710.268      43262.31       43102.682      50762.722      1.2517099    
    192000   499.71748      570.93003      36810.906      43521.387      43941.471      50451.858      1.2594224    
    193000   484.15783      256.94709      36818.684      43320.221      43513.396      51550.342      1.2325855    
    194000   487.52041     -359.61533      36855.612      43402.304      43136.479      50685.377      1.25362      
    195000   494.79909     -446.51861      36765.746      43410.18       43079.699      50749.3        1.252041     
    196000   489.86909     -321.72278      36856.683      43434.914      43198.297      50429.992      1.2599685    
    197000   490.48931     -528.56001      36760.245      43346.805      42953.182      51063.552      1.2443357    
    198000   491.67889     -311.59098      36980.406      43582.94       43352.624      50683.16       1.2536749    
    199000   483.4499      -1778.6091      36859.841      43351.872      42026.313      51102.571      1.2433857    
    200000   504.48299     -2501.4489      36918.144      43692.618      41826.534      51152.132      1.2421809    
    201000   507.32138     -948.74986      36954.466      43767.056      43060.798      51042.92       1.2448387    
    202000   498.50245      1588.4835      37002.045      43696.21       44870.049      50669.863      1.2540038    
    203000   499.99689      826.70918      36839.244      43553.477      44165.799      50786.875      1.2511146    
    204000   484.50801     -614.19223      36995.673      43501.912      43044.088      51111.552      1.2431672    
    205000   507.38144      786.08908      36919.747      43733.143      44312.497      50535.468      1.2573388    
    206000   502.97381      367.75158      36890.138      43644.347      43914.108      50297.719      1.263282     
    207000   513.28928      313.25763      37097.959      43990.689      44222.149      50663.887      1.2541518    
    208000   519.46954     -3975.1137      36924.97       43900.692      40930.299      51237.554      1.24011      
    209000   503.1735       423.45683      37045.494      43802.384      44116.118      50801.52       1.250754     
    210000   500.16816     -666.1768       37103.629      43820.162      43321.408      51335.875      1.2377349    
    211000   510.33971      2888.286       37120.827      43973.949      46147.906      51610.116      1.2311579    
    212000   519.27874     -1171.1318      37132.802      44105.962      43228.978      51346.392      1.2374814    
    213000   498.34886     -2223.4217      37132.854      43824.956      42154.718      51508.699      1.233582     
    214000   511.73281     -168.03149      37208.353      44080.183      43953.48       51703.476      1.2289348    
    215000   510.52792     -1463.6523      37221.122      44076.772      42971.436      51782.19       1.2270667    
    216000   517.45584     -445.68267      37261.158      44209.84       43876.217      51327.949      1.237926     
    217000   518.52958     -308.85173      37158.546      44121.646      43885.902      52337.704      1.2140426    
    218000   518.46065      918.92137      37321.765      44283.94       44973.399      51446.305      1.2350781    
    219000   513.48759     -1176.8196      37276.148      44171.541      43283.473      51744.105      1.2279699    
    220000   510.41021     -321.97779      37079.142      43933.211      43691.743      51423.056      1.2356365    
    221000   532.41718      728.88672      37133.16       44282.75       44828.558      51345.678      1.2374986    
    222000   514.89427     -1649.3772      37237.61       44151.893      42918.445      51277.257      1.2391498    
    223000   525.59948      953.29765      37347.211      44405.25       45108.552      50586.816      1.2560625    
    224000   523.28821      1028.7969      37196.476      44223.478      44996.8        51541.275      1.2328023    
    225000   519.26537      905.20301      37377.93       44350.911      45034.054      51747.515      1.227889     
    226000   519.35279     -433.57381      37339.966      44314.12       43982.832      52392.287      1.2127778    
    227000   530.07995      2043.9188      37369.871      44488.076      46054.808      52559.98       1.2089084    
    228000   532.28512     -1733.1079      37137.075      44284.892      42971.363      51968.257      1.2226734    
    229000   532.01793      1423.2512      37363.978      44508.207      45568.989      51105.615      1.2433116    
    230000   539.83191     -586.35706      37161.628      44410.787      43969.721      51578.235      1.2319189    
    231000   532.38717     -174.06605      37167.558      44316.746      44185.341      51763.184      1.2275173    
    232000   536.84049     -783.84271      37320.463      44529.452      43935.048      51996.821      1.2220017    
    233000   538.26168      1440.4827      37379.046      44607.12       45700.772      52058.925      1.2205439    
    234000   538.71474     -1808.6482      37538.748      44772.906      43403.382      51920.599      1.2237956    
    235000   530.89675     -649.31676      37458.521      44587.694      44090.006      52556.296      1.2089932    
    236000   543.17075     -2595.9677      37412.407      44706.402      42743.224      51854.258      1.2253613    
    237000   535.86623     -3009.0688      37342.434      44538.34       42261.621      51880.155      1.2247497    
    238000   523.18132      705.36352      37531.542      44557.108      45089.875      51790.312      1.2268743    
    239000   540.83213     -1506.0481      37520.215      44782.806      43632.754      52360.349      1.2135176    
    240000   541.77534     -1085.4701      37568.354      44843.611      44010.734      52612.296      1.2077063    
    241000   535.43059     -1965.151       37364.453      44554.509      43072.208      51720.737      1.2285247    
    242000   529.37945     -612.18197      37480.537      44589.335      44123.912      52130.489      1.2188683    
    243000   532.90894      312.15403      37614.607      44770.801      45008.612      52238.111      1.2163572    
    244000   541.1935      -1525.2598      37708.238      44975.681      43833.619      51341.69       1.2375947    
    245000   538.42957     -194.97451      37699.986      44930.314      44782.293      52055.712      1.2206192    
    246000   532.43371      824.88454      37526.05       44675.863      45307.455      52501.013      1.2102662    
    247000   548.4731       436.61562      37615.52       44980.718      45314.442      52409.795      1.2123727    
    248000   555.82847      1839.9559      37629.67       45093.64       46493.173      52155.451      1.218285     
    249000   544.28125     -599.01339      37750.939      45059.847      44610.008      51492.611      1.2339674    
    250000   527.87226     -1882.3         37632.508      44721.067      43305.946      51550.034      1.2325928    
    251000   535.17746     -471.30242      37900.454      45087.111      44726.512      52462.528      1.211154     
    252000   555.93251     -392.36411      37529.153      44994.521      44698.708      51695.28       1.2291297    
    253000   548.31186      1196.9363      37760.569      45123.602      46033.062      52099.905      1.2195838    
    254000   550.51606      986.64722      37630.298      45022.93       45775.871      52326.728      1.2142973    
    255000   546.98821      732.42187      37722.277      45067.536      45621.187      51832.146      1.2258841    
    256000   557.09786     -120.06694      37726.025      45207.041      45116.755      51560.657      1.2323389    
    257000   553.2646       153.49039      37783.218      45212.759      45328.942      51902.386      1.2242251    
    258000   557.97064     -442.7438       37785.52       45278.257      44940.979      52234.779      1.2164348    
    259000   560.48471     -1101.9854      37601.369      45127.865      44288.811      52208.172      1.2170547    
    260000   549.83932     -243.68221      37906.006      45289.55       45101.713      52854.525      1.2021715    
    261000   564.93592     -646.6469       37777.166      45363.436      44871.487      52164.743      1.218068     
    262000   554.17757      528.61017      37828.003      45269.804      45671.726      52135.051      1.2187617    
    263000   555.80021      2326.8888      37851.04       45314.63       47098.203      52558.064      1.2089525    
    264000   555.57064      823.67744      38019.869      45480.376      46108.919      52324.081      1.2143587    
    265000   567.83338      639.57146      37977.943      45603.122      46102.014      53486.179      1.1879742    
    266000   557.59536     -885.63257      37860.345      45348.042      44664.797      52898.974      1.2011614    
    267000   572.2499      -922.21944      37834.742      45519.227      44816.512      52247.962      1.2161279    
    268000   563.62498      478.37104      37977.709      45546.375      45911.135      52283.735      1.2152958    
    269000   561.22652      1181.5812      37844.777      45381.235      46295.048      53029.5        1.1982048    
    270000   565.79759     -1837.0905      38058.582      45656.423      44231.257      53193.538      1.1945098    
    271000   580.36447      1358.71        38048.654      45842.107      46877.631      52258.564      1.2158812    
    272000   566.38284      656.32575      37925.166      45530.866      46029.207      52063.263      1.2204422    
    273000   577.95805      118.75546      37827.713      45588.851      45678.414      51712.708      1.2287155    
    274000   577.40568      265.61043      37985.614      45739.335      45942.12       52349.648      1.2137656    
    275000   574.41406     -1377.821       38207.088      45920.635      44860.587      52754.177      1.2044582    
    276000   569.189        987.18112      38032.925      45676.308      46440.577      53085.215      1.1969473    
    277000   559.25658      1300.9837      37947.992      45457.997      46457.308      52668.743      1.206412     
    278000   577.56765      788.29132      38119.748      45875.644      46478.976      52480.071      1.2107492    
    279000   571.94781     -1599.3666      37919.418      45599.847      44370.047      52724.278      1.2051413    
    280000   574.34203      1680.8487      38117.951      45830.531      47127.76       52919.045      1.2007058    
    281000   574.38842     -1916.0587      38253.466      45966.669      44469.287      53585.564      1.1857709    
    282000   577.11494      917.66179      38232.479      45982.295      46695.158      53265.703      1.1928915    
    283000   579.78585     -1476.6943      38107.397      45893.08       44734.873      53779.866      1.1814868    
    284000   593.96836     -1932.3268      38330.307      46306.44       44814.056      52957.089      1.1998432    
    285000   583.09362      1405.6987      38206.728      46036.829      47124.542      53057.39       1.197575     
    286000   577.59364      97.837271      38126.033      45882.277      45957.138      52465.344      1.211089     
    287000   581.00637     -102.50483      38414.995      46217.067      46137.732      53069.684      1.1972976    
    288000   583.41311     -772.05621      38165.411      45999.802      45396.543      53577.107      1.1859581    
    289000   586.04518      1914.545       38081.481      45951.217      47429.141      52931.05       1.2004334    
    290000   603.08045      213.12769      38134.682      46233.178      46398.709      53255.467      1.1931208    
    291000   585.84726      173.43068      38102.262      45969.341      46104.449      53417.018      1.1895123    
    292000   592.41977     -109.87368      38598.738      46554.076      46468.401      53466.629      1.1884086    
    293000   584.23524      116.32535      38328.832      46174.263      46265.401      53721.399      1.1827727    
    294000   602.3569      -407.37863      38113.503      46202.282      45886.287      53187.089      1.1946547    
    295000   595.5994      -134.75507      38253.357      46251.393      46145.129      54071.467      1.1751152    
    296000   599.07709      493.60467      38360.238      46404.974      46791.277      53662.798      1.1840643    
    297000   582.12211      357.53005      38504.838      46321.893      46603.044      53920.113      1.1784138    
    298000   600.49657      63.203406      38595.469      46659.266      46708.839      53780.456      1.1814739    
    299000   591.10229      14.360756      38428.581      46366.227      46377.514      53893.954      1.1789857    
    300000   597.66543     -2345.2269      38505.528      46531.308      44676.327      54234.889      1.1715743    
    301000   595.17444      715.66286      38517.061      46509.39       47076.4        54325.848      1.1696127    
    302000   599.25652      699.92206      38535.915      46583.06       47129.477      53530.14       1.1869986    
    303000   603.74907     -2498.7144      38520.226      46627.7        44648.892      54301.421      1.1701389    
    304000   594.24327      700.4933       38475.729      46455.554      46999.608      53255.156      1.1931277    
    305000   610.33612     -156.23931      38449.828      46645.757      46522.758      53980.39       1.1770979    
    306000   607.84516     -77.731852      38574.28       46736.759      46675.609      53941.34       1.17795      
    307000   621.05313      2464.8009      38632.804      46972.646      48899.781      53611.049      1.1852072    
    308000   598.08369     -2129.1927      38669.195      46700.592      45015.075      54280.283      1.1705945    
    309000   607.65349      1993.3501      38388.465      46548.37       48066.898      52235.217      1.2164246    
    310000   604.65761     -742.32847      38708.077      46827.752      46242.438      54065.052      1.1752546    
    311000   605.82491      155.39909      38647.295      46782.645      46903.713      53420.412      1.1894368    
    312000   601.07641     -811.31701      38525.721      46597.306      45958.415      53995.82       1.1767615    
    313000   604.03152     -1745.2549      38869.195      46980.462      45597.94       54317.199      1.169799     
    314000   613.16097      934.43696      38865.522      47099.384      47849.581      55048.949      1.1542492    
    315000   596.43271      282.47534      38753.84       46763.066      46989.161      54882.398      1.1577519    
    316000   608.08672      973.69636      38836.782      47002.504      47777.157      54551.624      1.164772     
    317000   611.97106      134.79658      38750.508      46968.392      47074.256      53851.127      1.1799234    
    318000   608.57872     -264.92457      38740.706      46913.035      46701.42       54770.866      1.1601095    
    319000   609.57466      532.86859      38928.391      47114.094      47543.486      55253.282      1.1499806    
    320000   619.98138      3857.3671      38853.519      47178.969      50249.709      54585.357      1.1640522    
    321000   626.64344     -301.41911      38753.679      47168.591      46929.067      54488.344      1.1661247    
    322000   612.94824      536.03857      38862.796      47093.802      47523.32       54942.684      1.1564816    
    323000   618.8055       1351.3852      38886.918      47196.579      48274.688      54702.585      1.1615576    
    324000   620.85859     -2446.6411      38852.488      47189.718      45227.515      54991.783      1.1554491    
    325000   616.84021     -556.83932      39051.489      47334.758      46889.526      54825.358      1.1589565    
    326000   616.73978      2056.2509      38855.736      47137.657      48808.003      55699.914      1.1407594    
    327000   615.15672     -727.60581      38816.325      47076.987      46488.113      55494.574      1.1449805    
    328000   615.94865      1748.1529      39023.289      47294.585      48674.386      54120.39       1.1740529    
    329000   632.90411     -663.4833       38856.772      47355.756      46833.99       53922.505      1.1783615    
    330000   634.42442     -140.63313      38779.53       47298.929      47186.942      54601.274      1.1637128    
    331000   623.86359     -443.67932      38922.894      47300.477      46947.525      54546.971      1.1648713    
    332000   629.69398     -964.9435       38959.689      47415.566      46644.524      54789.845      1.1597077    
    333000   616.92803     -9.6276223      38778.551      47062.999      47055.37       54333.323      1.1694518    
    334000   623.89745      880.22631      39176.699      47554.737      48261.11       55025.46       1.1547419    
    335000   636.79721      42.078527      38931.169      47482.431      47515.604      54055.297      1.1754667    
    336000   620.61071      1645.2858      38783.467      47117.368      48428.406      54638.369      1.1629228    
    337000   630.70963     -1112.621       39172.498      47642.013      46748.3        55077.567      1.1536494    
    338000   620.60851     -1412.947       39009.309      47343.181      46216.419      54680.25       1.162032     
    339000   626.96789     -309.20089      39199.434      47618.703      47372.415      54616.858      1.1633808    
    340000   629.2563       79.581324      39033.368      47483.367      47547.673      55407.161      1.1467868    
    341000   642.5692      -2404.1661      39245.029      47873.801      45948.768      54903.197      1.1573134    
    342000   637.14408     -281.76791      38991.465      47547.385      47321.844      54885.555      1.1576854    
    343000   638.65242      1538.9175      38935.237      47511.412      48725.634      54101.176      1.1744699    
    344000   646.91656      1014.007       39042.126      47729.277      48532.534      54317.271      1.1697974    
    345000   649.29132      555.58039      39399.962      48119.003      48557.624      54133.546      1.1737676    
    346000   644.10457     -983.48346      39170.387      47819.777      47042.107      54219.137      1.1719147    
    347000   628.33412      114.48259      39095.701      47533.316      47623.231      53853.87       1.1798633    
    348000   655.96196      2585.4834      39048.087      47856.705      49910.423      54465.716      1.1666092    
    349000   652.56377     -13.075643      39317.792      48080.776      48070.339      54735.778      1.1608532    
    350000   647.85721     -3274.9132      39346.759      48046.541      45443.509      54500.913      1.1658558    
    351000   641.74514      95.698182      39124.899      47742.605      47819.602      55169.22       1.1517328    
    352000   651.22108     -1170.4715      39303.529      48048.484      47101.347      55485.006      1.1451779    
    353000   641.76579     -3367.8716      39412.267      48030.25       45247.195      56661.819      1.1213936    
    354000   659.61109      761.09791      39703.745      48561.365      49183.324      56033.196      1.1339743    
    355000   646.72886      554.32657      39186.889      47871.519      48309.508      54177.821      1.1728084    
    356000   649.15462      200.67433      39379.746      48096.951      48257.15       54738.308      1.1607995    
    357000   651.8215       676.27575      39423.07       48176.087      48718.824      55028.728      1.1546733    
    358000   650.21897      152.03053      39347.865      48079.362      48200.91       54820.259      1.1590643    
    359000   651.23337      1677.6152      39370.784      48115.904      49482.521      55857.145      1.1375484    
    360000   642.86998     -10.015476      39377.044      48009.855      48001.786      55243.717      1.1501797    
    361000   660.69809     -293.32049      39542.75       48414.966      48174.535      56204.834      1.1305113    
    362000   657.0723       956.86769      39323.865      48147.393      48913.32       54885.755      1.1576811    
    363000   648.48758     -1117.6883      39378.746      48086.993      47181.725      55536.805      1.1441098    
    364000   670.43428      1932.8101      39499.12       48502.079      50043.032      54666.87       1.1623165    
    365000   658.18005      2023.5966      39461.633      48300.036      49921.134      54929.978      1.1567491    
    366000   655.48026      1275.4446      39350.445      48152.594      49180.765      55274.887      1.1495311    
    367000   673.37877      1811.2403      39356.475      48398.975      49834.705      54352.646      1.1690361    
    368000   699.39412      3569.1634      39274.217      48666.066      51533.23       55082.06       1.1535553    
    369000   674.21833      78.663208      39520.994      48574.768      48637.91       55038.866      1.1544606    
    370000   651.20274     -679.48964      39336.522      48081.23       47546.1        54000.769      1.1766537    
    371000   657.92968     -342.92391      39573.46       48408.501      48133.961      54895.043      1.1574853    
    372000   675.48032     -289.79414      39646.357      48717.078      48481.99       55624.271      1.1423107    
    373000   666.06163     -1142.8712      39633.507      48577.749      47644.654      55982.558      1.135        
    374000   675.04956      1077.749       39678.931      48743.867      49628.528      56283.779      1.1289257    
    375000   677.99216      2378.5222      39407.303      48511.754      50429.5        55285.08       1.1493192    
    376000   676.74094     -2032.3665      39809.663      48897.312      47242.213      55840.096      1.1378957    
    377000   667.60725     -592.86951      39738.292      48703.289      48220.376      55851.414      1.1376651    
    378000   672.30693      1254.2355      39771.92       48800.027      49825.428      56058.151      1.1334695    
    379000   669.04615     -1215.5643      39535.025      48519.344      47538.01       55355.77       1.1478515    
    380000   676.5099       1308.3615      39688.772      48773.319      49825.503      55142.714      1.1522865    
    381000   701.9094       529.54554      39583.031      49008.656      49444.331      56413.585      1.126328     
    382000   666.71064     -270.31701      39724.997      48677.954      48458.391      55694.048      1.1408796    
    383000   691.14991      1350.3636      39760.222      49041.363      50163.696      56989.561      1.1149446    
    384000   665.8364      -1976.1852      39760.579      48701.796      47063.622      56840.312      1.1178722    
    385000   694.2039       884.28759      39804.182      49126.333      49855.548      56543.98       1.1237306    
    386000   682.34398      384.47406      39815.45       48978.34       49296.09       56668.666      1.1212581    
    387000   695.56576      925.28234      39798.022      49138.461      49892.6        55885.702      1.1369671    
    388000   691.27724      831.57275      40083.87       49366.721      50053.169      56601.982      1.1225791    
    389000   685.39117     -347.84017      39967.812      49171.621      48885.164      56468.184      1.125239     
    390000   686.21711     -665.53617      39856.602      49071.502      48518.268      56998.226      1.1147751    
    391000   690.29064     -550.75423      39888.941      49158.543      48700.697      57001.394      1.1147131    
    392000   694.04154      1334.0367      39684.58       49004.551      50101.565      56385.642      1.1268862    
    393000   699.11261     -516.49222      39893.247      49281.315      48857.416      56275.94       1.1290829    
    394000   700.13781     -316.87983      39958.333      49360.168      49097.827      56766.915      1.1193175    
    395000   685.31407      204.87419      40111.69       49314.463      49485.85       57360.478      1.1077349    
    396000   689.84481      1284.2048      39914.919      49178.534      50237.135      56522.62       1.1241553    
    397000   702.06433     -2678.494       40215.007      49642.713      47396.039      57513.991      1.1047782    
    398000   694.60317     -2028.7116      39784.775      49112.288      47452.95       56083.965      1.1329478    
    399000   706.27548     -192.99556      39854.393      49338.648      49179.426      56569.299      1.1232277    
    400000   692.24457      793.10595      39716.729      49012.569      49664.741      56383.883      1.1269214    
    401000   688.95573     -2459.8762      40053.568      49305.245      47261.731      56962.414      1.115476     
    402000   687.16411     -2775.2208      40142.546      49370.163      47101.435      56054.312      1.1335471    
    403000   709.23334      766.54744      39969.401      49493.376      50115.762      55672.989      1.1413111    
    404000   705.48014      321.58463      40201.394      49674.969      49940.245      56562.353      1.1233656    
    405000   702.62184     -1220.957       39884.143      49319.335      48312.249      56557.549      1.123461     
    406000   696.5083       1031.2382      40197.733      49550.829      50426.128      58199.796      1.0917599    
    407000   704.5796       1690.6307      40444.731      49906.213      51321.807      57413.525      1.1067114    
    408000   695.7875      -847.05278      40383.323      49726.74       49002.284      58644.263      1.0834854    
    409000   713.79033      1798.4356      40090.903      49676.072      51215.587      58696.636      1.0825186    
    410000   693.68066     -2189.5622      40172.325      49487.45       47622.272      58409.983      1.0878312    
    411000   721.87719      321.65925      40198.99       49892.753      50169.005      58888.909      1.0789842    
    412000   731.81488      703.15786      40258.625      50085.838      50678.998      57842.053      1.0985122    
    413000   724.78122     -1100.1995      40083.257      49816.017      48889.878      57720.323      1.100829     
    414000   702.28946      404.30199      40430.56       49861.289      50205.275      58339.017      1.0891545    
    415000   724.01812     -465.97998      40332.439      50054.952      49664.013      57526.145      1.1045448    
    416000   717.50599      210.38314      40177.326      49812.39       49987.298      57006.356      1.1146161    
    417000   711.44366      1532.749       40114.07       49667.726      50933.97       56646.146      1.1217039    
    418000   727.04184     -63.988607      40330.977      50094.094      50039.52       58480.168      1.0865257    
    419000   717.70331      420.49142      40284.163      49921.877      50278.996      58234.325      1.0911125    
    420000   714.72391      709.1015       40391.049      49988.755      50608.63       59940.485      1.0600549    
    421000   721.67521      1544.3892      40535.082      50226.133      51530.28       57902.055      1.0973739    
    422000   714.8282      -1328.4489      40418.556      50017.662      48896.034      57893.244      1.0975409    
    423000   720.23756     -314.17424      40307.012      49978.758      49714.656      57640.136      1.1023604    
    424000   731.50271     -395.3114       40263.546      50086.566      49751.971      58036.956      1.0948231    
    425000   723.91221      630.65944      40404.386      50125.477      50654.182      57483.441      1.1053653    
    426000   724.37409      123.49101      40583.327      50310.62       50415.463      58213.876      1.0914958    
    427000   704.91063     -827.07807      40509.848      49975.775      49264.814      58941.763      1.0780167    
    428000   715.88203     -1040.1001      40473.677      50086.934      49207.37       57985.157      1.0958012    
    429000   740.44827     -912.21917      40605.819      50548.965      49772.17       58389.024      1.0882217    
    430000   717.25631     -234.93427      40526.713      50158.425      49960.96       57632.735      1.102502     
    431000   720.47319      434.66582      40354.757      50029.667      50395.133      57652.171      1.1021303    
    432000   732.12172      2196.9552      40374.855      50206.187      52056.243      57741.468      1.1004258    
    433000   734.09648      1550.2784      40590.583      50448.434      51731.24       56738.185      1.1198843    
    434000   721.27275     -906.49304      40594.25       50279.896      49520.324      57455.134      1.1059099    
    435000   733.10935      1568.5399      40412.628      50257.223      51566.308      57226.379      1.1103306    
    436000   736.30777      1916.3704      40738.629      50626.174      52217.857      56950.992      1.1156997    
    437000   728.24405     -1841.4297      40468.672      50247.933      48690.341      57999.309      1.0955338    
    438000   722.6602      -2662.5016      40661.505      50365.783      48107.626      58155.183      1.0925974    
    439000   736.24323      127.11432      40631.712      50518.391      50623.784      56851.689      1.1176485    
    440000   723.01876      10.620762      40547.387      50256.48       50265.444      57871.934      1.097945     
    441000   737.37496     -1490.6996      40608.423      50510.299      49266.33       57219.431      1.1104655    
    442000   753.23254      1523.5343      40588.271      50703.091      51984.674      57679.141      1.1016149    
    443000   737.28777     -724.23848      40660.932      50561.637      49950.324      57877.065      1.0978477    
    444000   752.6632       1586.4607      40842.167      50949.342      52285.641      57756.21       1.100145     
    445000   748.31328     -1646.0851      40662.818      50711.58       49324.947      57760.809      1.1000574    
    446000   741.68272     -724.51566      40736.162      50695.885      50074.933      58767.15       1.0812198    
    447000   748.04273     -74.600828      40683.088      50728.216      50665.001      58103.162      1.0935757    
    448000   737.42609      800.1449       40527.114      50429.676      51087.533      56375.029      1.1270984    
    449000   748.42388      231.47719      40872.662      50922.908      51119.865      58342.656      1.0890866    
    450000   762.59858     -2325.254       40775.752      51016.344      49047.932      58045.67       1.0946588    
    451000   759.83712     -1257.6861      40670.551      50874.061      49779.76       59660.729      1.0650256    
    452000   749.22966     -1360.3397      40858.331      50919.399      49768.965      57988.031      1.0957469    
    453000   757.17624      3269.4926      40815.075      50982.854      53786.112      58790.47       1.0807909    
    454000   752.65451      97.295127      40746.006      50853.065      50936.075      58501.471      1.08613      
    455000   746.05683      436.6725       40683.695      50702.156      51078.615      59113.421      1.0748863    
    456000   729.73801     -2927.912       40928.523      50727.845      48204.85       59085.732      1.07539      
    457000   742.48379      1622.8107      40893.869      50864.349      52280.593      59840.39       1.061828     
    458000   760.81071      451.0602       40862.814      51079.398      51465.44       58684.553      1.0827415    
    459000   769.50059      358.52976      41009.463      51342.74       51653.623      59456.146      1.0686902    
    460000   751.57933     -1768.4042      41007.652      51100.272      49530.941      60849.507      1.0442189    
    461000   752.78864      407.23042      40869.502      50978.362      51338.138      60578.166      1.0488961    
    462000   748.17492     -756.37898      41046.432      51093.335      50435.36       59647.75       1.0652573    
    463000   763.44667      866.45848      40862          51113.981      51867.207      59607.565      1.0659755    
    464000   778.61783      895.9008       41028.979      51484.687      52270.451      60139.056      1.0565547    
    465000   770.444       -2128.459       41105.932      51451.878      49616.827      59116.233      1.0748351    
    466000   768.39963      568.43634      41031.285      51349.777      51850.93       60452.279      1.0510804    
    467000   758.25899     -976.82421      40906.031      51088.349      50253.045      58634.414      1.0836674    
    468000   782.49072      343.98573      41049.698      51557.413      51854.734      59266.528      1.0721094    
    469000   755.1917      -1798.4501      41138.743      51279.872      49741.532      58651.332      1.0833548    
    470000   763.79329     -42.872431      40911.835      51168.471      51131.663      58869.076      1.0793477    
    471000   786.54405     -964.36609      41036.229      51598.375      50760.042      59607.206      1.0659819    
    472000   762.35699     -1216.651       41184.726      51422.075      50370.306      59275.908      1.0719398    
    473000   772.86448      600.20539      41377.868      51756.316      52270.934      58790.757      1.0807856    
    474000   790.29807     -620.19474      41011.761      51624.318      51090.231      59048.392      1.07607      
    475000   760.53513     -935.36439      40997.601      51210.484      50409.779      58697.019      1.0825116    
    476000   782.88141     -3459.543       41090.77       51603.732      48590.522      59722.049      1.0639321    
    477000   786.48354      2372.2887      41011.59       51572.923      53623.762      59277.25       1.0719155    
    478000   772.98395     -362.44554      41112.995      51493.048      51181.508      58938.1        1.0780837    
    479000   785.21699      981.27728      41405.737      51950.062      52784.183      58285.67       1.0901514    
    480000   778.74737     -830.73834      41161.068      51618.516      50887.361      60348.872      1.0528814    
    481000   774.17558     -1002.2956      41477.431      51873.486      51014.366      58773.577      1.0811015    
    482000   770.59547      86.841205      41345.436      51693.415      51768.524      59304.878      1.0714161    
    483000   787.79214     -418.72424      41188.501      51767.406      51403.314      59622.061      1.0657163    
    484000   784.75936     -636.4026       41263.978      51802.158      51250.715      59414.478      1.0694397    
    485000   791.95032     -1283.8659      41237.172      51871.916      50736.505      60639.772      1.0478305    
    486000   791.63334     -393.11037      41417.132      52047.619      51706.713      59462.794      1.0685708    
    487000   772.01223      730.87412      41455.135      51822.14       52464.359      60251.087      1.0545901    
    488000   807.39017      336.47483      41350.09       52192.169      52491.934      61087.557      1.0401497    
    489000   797.2586       624.26168      41367.592      52073.619      52631.341      61259.816      1.0372248    
    490000   788.53186     -404.36632      41501.996      52090.835      51731.724      60894.509      1.0434472    
    491000   778.66237      57.114182      41408.334      51864.64       51915.325      60850.061      1.0442094    
    492000   798.98012      376.03488      41329.76       52058.904      52388.005      60010.226      1.0588229    
    493000   792.61822     -2728.7281      41206.401      51850.114      49479.363      59573.058      1.0665929    
    494000   795.07296      868.06512      41508.099      52184.775      52935.04       59263.351      1.0721669    
    495000   779.25452      835.22535      41102.349      51566.607      52285.142      58988.681      1.0771592    
    496000   800.76431      1378.5155      41431.636      52184.739      53366.005      58757.049      1.0814056    
    497000   812.80907      762.27682      41411.93       52326.777      52977.007      58489.59       1.0863506    
    498000   803.77764     -220.52112      41383.609      52177.176      51986.39       59322.74       1.0710935    
    499000   799.67653     -874.03507      41640.423      52378.919      51630.964      58677.371      1.0828741    
    500000   800.94224     -470.32579      41745.038      52500.53       52092.011      59557.664      1.0668686    
    501000   795.68728      925.20999      41588.919      52273.844      53070.3        59026.298      1.0764728    
    502000   791.51491      354.03365      41444.557      52073.454      52375.098      58421.725      1.0876126    
Loop time of 162.821 on 64 procs for 500000 steps with 4506 atoms

Performance: 265.322 ns/day, 0.090 hours/ns, 3070.859 timesteps/s, 13.837 Matom-step/s
100.0% CPU use with 64 MPI tasks x no OpenMP threads

MPI task timing breakdown:
Section |  min time  |  avg time  |  max time  |%varavg| %total
---------------------------------------------------------------
Pair    | 58.986     | 68.409     | 77.653     |  61.0 | 42.01
Bond    | 5.7949     | 6.5845     | 7.4062     |  12.9 |  4.04
Neigh   | 19.159     | 19.231     | 19.296     |   1.1 | 11.81
Comm    | 47.918     | 57.775     | 67.602     |  68.2 | 35.48
Output  | 0.066977   | 0.1042     | 0.20539    |   5.5 |  0.06
Modify  | 8.1032     | 8.501      | 8.8894     |   6.0 |  5.22
Other   |            | 2.216      |            |       |  1.36

Nlocal:        70.4062 ave          96 max          47 min
Histogram: 1 5 6 9 11 15 11 4 1 1
Nghost:        2883.28 ave        2932 max        2813 min
Histogram: 1 2 2 8 8 12 10 8 10 3
Neighs:        19316.1 ave       28856 max       10815 min
Histogram: 1 2 11 7 18 7 12 2 3 1

Total # of neighbors = 1236229
Ave neighs/atom = 274.35175
Ave special neighs/atom = 10.462051
Neighbor list builds = 30215
Dangerous builds = 0
unfix HEAT

# ---------------- 800K 驰豫 ----------------
fix RELAX all npt temp 800.0 800.0 100.0 iso 1.0 1.0 1000.0
run 1000000
Generated 21 of 21 mixed pair_coeff terms from geometric mixing rule
Per MPI rank memory allocation (min/avg/max) = 13.23 | 13.41 | 13.7 Mbytes
   Step          Temp          Press          PotEng         TotEng        Enthalpy        Volume        Density    
    502000   791.51491      354.03365      41444.557      52073.454      52375.098      58421.725      1.0876126    
    503000   806.64086     -393.59955      41106.433      51938.449      51597.83       59338.781      1.070804     
    504000   798.95902      1929.3057      41602.639      52331.499      54016.1        59871.471      1.0612768    
    505000   824.90004     -736.96943      41402.3        52479.511      51838.235      59665.018      1.064949     
    506000   798.97369     -1520.8753      41479.637      52208.694      50913.218      58406.334      1.0878992    
    507000   799.10119     -1359.2363      41619.812      52350.582      51188.317      58631.936      1.0837132    
    508000   796.63705     -837.17297      41657.261      52354.941      51647.359      57954.28       1.096385     
    509000   792.05833     -1673.8918      41355.419      51991.614      50554.265      58878.807      1.0791693    
    510000   806.49878     -1277.0452      41622.672      52452.78       51352.911      59055.277      1.0759445    
    511000   793.78163     -1754.1149      41565.626      52224.962      50713.522      59082.221      1.0754539    
    512000   795.27094     -581.73963      41420.394      52099.729      51603.535      58485.311      1.0864301    
    513000   804.73817     -889.90446      41671.782      52478.248      51707.36       59398.019      1.0697361    
    514000   803.47171     -1816.2303      41592.884      52382.344      50801.828      59669.448      1.06487      
    515000   808.51807      862.10576      41198.158      52055.382      52785.403      58062.892      1.0943341    
    516000   804.22499     -954.09309      41780.126      52579.7        51728.335      61185.589      1.0384831    
    517000   792.85293     -239.07475      41616.024      52262.889      52052.627      60304.536      1.0536555    
    518000   792.5707       1114.6681      41488.313      52131.387      53095.754      59322.638      1.0710954    
    519000   798.54163      1493.3649      41612.394      52335.649      53638.714      59830.716      1.0619997    
    520000   794.61183      454.10306      41509.085      52179.569      52577.33       60060.932      1.057929     
    521000   800.54623      1456.7848      41322.722      52072.896      53338.06       59549.137      1.0670214    
    522000   820.62897      32.275088      41487.828      52507.685      52535.603      59311.806      1.071291     
    523000   784.14651     -810.1222       41678.353      52208.303      51494.901      60382.055      1.0523028    
    524000   808.90841      2477.0728      41417.366      52279.833      54427.495      59449.923      1.0688021    
    525000   801.1763      -271.26125      41529.613      52288.248      52060.001      57695.39       1.1013047    
    526000   785.54852     -1858.6977      41481.59       52030.367      50492.528      56731.747      1.1200114    
    527000   798.815       -1251.9719      41437.35       52164.276      51108.017      57849.571      1.0983695    
    528000   800.21522      950.46448      41652.263      52397.992      53201.132      57940.074      1.0966538    
    529000   819.72085      2146.0051      41442.489      52450.151      54292.352      58861.366      1.0794891    
    530000   791.17743      899.27325      41234.451      51858.816      52625.952      58493.158      1.0862844    
    531000   790.88394     -2931.5177      41493.038      52113.462      49612.725      58492.426      1.086298     
    532000   816.60257      721.79782      41505.85       52471.637      53073.744      57198.122      1.1108792    
    533000   798.54413     -313.86316      41489.795      52213.084      51952.199      56994.561      1.1148468    
    534000   791.41044     -369.25547      41315.804      51943.298      51630.947      58001.595      1.0954906    
    535000   814.07209      3203.3893      41473.613      52405.421      55196.777      59748.875      1.0634544    
    536000   800.82654     -2223.6619      41775.94       52529.878      50545.985      61174.964      1.0386635    
    537000   801.08725     -151.40688      41415.175      52172.615      52037.979      60973.224      1.0421001    
    538000   798.38928     -377.91694      41837.703      52558.913      52228.557      59939.086      1.0600796    
    539000   812.0147       201.33421      41561.798      52465.978      52641.57       59801.34       1.0625214    
    540000   793.19429      1782.7737      41532.746      52184.195      53750.208      60231.446      1.054934     
    541000   794.01008      2557.018       41483.145      52145.548      54364.749      59509.597      1.0677304    
    542000   788.14573     -1897.1813      41305.805      51889.459      50247.808      59332.95       1.0709092    
    543000   814.01989     -1470.3089      41473.059      52404.165      51142.918      58818.718      1.0802718    
    544000   796.98071     -868.98956      41490.208      52192.502      51427.25       60382.941      1.0522873    
    545000   803.66759     -1603.7319      41505.013      52297.103      50910.471      59286.187      1.0717539    
    546000   811.43271      1010.2525      41702.883      52599.247      53481.941      59910.685      1.0605821    
    547000   805.83065     -260.66059      41476.224      52297.36       52064.723      61196.767      1.0382935    
    548000   792.55185      600.33568      41629.413      52272.234      52798.038      60055.605      1.0580229    
    549000   804.1948       307.10993      41596.357      52395.526      52667.489      60721.053      1.0464279    
    550000   813.15514     -1342.2174      41649.128      52568.622      51382.774      60580.157      1.0488616    
    551000   797.67816      298.55114      41535.062      52246.723      52507.571      59909.142      1.0606095    
    552000   823.3176       1883.3338      41494.976      52550.937      54202.522      60130.897      1.0566981    
    553000   786.51483      66.038916      41758.116      52319.869      52377.505      59843.417      1.0617743    
    554000   773.21066      992.62719      41634.149      52017.246      52916.362      62108.862      1.0230457    
    555000   810.97577      898.66748      41586.304      52476.532      53293.86       62362.148      1.0188906    
    556000   806.44922     -284.06917      41623.486      52452.929      52194.738      62321.941      1.0195479    
    557000   813.38286      998.17794      41756.639      52679.191      53571.91       61324.044      1.0361385    
    558000   790.39509      293.82016      41588.933      52202.793      52463.548      60852.084      1.0441746    
    559000   798.52693     -270.41694      41530.524      52253.582      52011.31       61431.757      1.0343218    
    560000   806.92922      1240.4283      41583.89       52419.779      53499.196      59668.059      1.0648948    
    561000   792.44953     -1368.1587      41662.409      52303.857      51114.707      59596.951      1.0661653    
    562000   786.63034      187.36982      41235.876      51799.181      51966.846      61357.334      1.0355763    
    563000   806.22241      221.07154      41444.071      52270.468      52463.579      59896.104      1.0608403    
    564000   794.22578      51.028         41432.607      52097.907      52143.145      60787.669      1.0452811    
    565000   800.1506      -271.1339       41567.705      52312.566      52069.895      61370.402      1.0353558    
    566000   814.61032      112.07222      41671.505      52610.54       52710.288      61028.363      1.0411586    
    567000   785.87252     -968.04681      41606.204      52159.332      51311.896      60025.29       1.0585572    
    568000   796.29232      1885.9208      41717.4        52410.451      54072.963      60445.719      1.0511944    
    569000   782.70004     -2643.7297      41523.791      52034.317      49686.406      60895.979      1.043422     
    570000   808.84487      2099.6551      41569.445      52431.058      54261.206      59767.105      1.06313      
    571000   812.58873      408.05698      41454.189      52366.077      52720.281      59519.199      1.0675581    
    572000   785.12901      1157.6131      41550.051      52093.194      53118.318      60720.71       1.0464338    
    573000   791.1359       1421.6508      41485.282      52109.089      53375.201      61066.535      1.0405077    
    574000   800.43984      2254.1434      41608.115      52356.861      54362.729      61016.163      1.0413667    
    575000   793.02076      550.03517      41385.746      52034.864      52519.44       60408.21       1.0518471    
    576000   804.47928      692.03384      41412.055      52215.045      52818.4        59781.931      1.0628664    
    577000   805.26686     -263.44811      41530.337      52343.902      52116.7        59134.722      1.074499     
    578000   789.42493      212.67146      41302.222      51903.054      52084.961      58649.56       1.0833876    
    579000   806.26609     -776.91808      41566.033      52393.017      51717.386      59629.195      1.0655888    
    580000   809.27638      1023.9122      41427.589      52294.997      53177.757      59115.884      1.0748415    
    581000   793.02096      686.6233       41424.938      52074.059      52670.062      59518.793      1.0675654    
    582000   796.38444     -866.10278      41681.57       52375.857      51614.055      60311.063      1.0535414    
    583000   788.9084       361.76455      41417.089      52010.985      52321.164      58790.975      1.0807816    
    584000   810.0036      -1019.2261      41693.762      52570.936      51658.648      61374.116      1.0352932    
    585000   787.08254     -36.486449      41728.877      52298.253      52266.179      60277.894      1.0541212    
    586000   787.07924      409.01251      41659.455      52228.787      52588.171      60248.374      1.0546376    
    587000   807.28984      623.37548      41564.377      52405.109      52942.719      59134.605      1.0745012    
    588000   791.24548     -199.33984      41706.511      52331.79       52157.979      59787.189      1.0627729    
    589000   798.13744     -545.65283      41430.299      52148.127      51677.334      59161.36       1.0740153    
    590000   800.80503     -1808.381       41563.894      52317.544      50760.482      59039.145      1.0762385    
    591000   803.25891     -1106.2826      41305.882      52092.484      51133.688      59427.069      1.0692131    
    592000   792.57777      1863.4631      41581.883      52225.053      53827.295      58956.459      1.0777479    
    593000   794.5334       1710.0904      41647.664      52317.095      53814.849      60054.463      1.058043     
    594000   790.16326     -2444.7747      41432.547      52043.293      49919.735      59559.29       1.0668395    
    595000   800.20019     -105.94082      41322.905      52068.432      51977.143      59085.518      1.0753939    
    596000   799.18902     -31.904582      41621.651      52353.6        52325.58       60221.109      1.0551151    
    597000   806.61323      1851.6662      41473.651      52305.297      53901.483      59107.836      1.0749878    
    598000   795.03793     -2735.2167      41527.974      52204.18       49812.476      59956.998      1.0597629    
    599000   783.33974      849.58059      41480.575      51999.692      52732.442      59139.253      1.0744167    
    600000   796.15132     -748.73832      41666.105      52357.263      51709.049      59362.53       1.0703756    
    601000   801.80824      920.27486      41683.016      52450.138      53228.495      57994.324      1.095628     
    602000   808.65928      145.06609      41379.921      52239.042      52366.566      60276.993      1.0541369    
    603000   788.20699      574.28425      41414.285      51998.762      52496.763      59460.398      1.0686138    
    604000   799.28552     -584.21067      41571.795      52305.04       51784.109      61141.291      1.0392356    
    605000   804.14783      145.22586      41701.586      52500.125      52628.395      60562.761      1.0491629    
    606000   815.56125     -677.38681      41645.866      52597.67       51992.38       61270.422      1.0370453    
    607000   789.70984      700.19588      41655.774      52260.431      52883.705      61035.598      1.0410351    
    608000   813.14468     -2249.673       41824.89       52744.244      50691.505      62565.987      1.015571     
    609000   799.88359      593.76859      41536.314      52277.591      52797.427      60030.694      1.0584619    
    610000   794.54781      863.03442      41452.186      52121.811      52899.752      61807.686      1.0280308    
    611000   801.65791      37.690652      41668.375      52433.478      52467.849      62528.997      1.0161718    
    612000   784.85166      891.30493      41403.438      51942.858      52750.645      62143.338      1.0224781    
    613000   801.88198     -81.873659      41582.837      52350.948      52277.01       61922.859      1.0261187    
    614000   826.45796     -917.83594      41607.392      52705.523      51871.968      62272.091      1.0203641    
    615000   798.13461      287.51935      41408.752      52126.542      52377.44       59834.939      1.0619248    
    616000   799.88547      1015.5531      41641.125      52382.426      53293.127      61488.987      1.0333591    
    617000   810.98675     -577.61948      41491.436      52381.811      51859.113      62048.855      1.0240351    
    618000   805.21381     -2535.364       41565.182      52378.035      50116.165      61171.821      1.0387169    
    619000   796.37016     -2324.1971      41905.815      52599.911      50538.685      60810.249      1.044893     
    620000   796.79919     -703.95922      41686.046      52385.903      51746.923      62239.208      1.0209031    
    621000   800.59375     -368.74506      41578.272      52329.085      51997.369      61682.69       1.030114     
    622000   811.27515     -898.95469      41623.312      52517.56       51723.337      60579.939      1.0488654    
    623000   810.5986      -838.36581      41481.294      52366.457      51608.582      61985.258      1.0250857    
    624000   800.01808     -970.86569      41413.255      52156.337      51277.852      62043.913      1.0241166    
    625000   813.02093     -121.55015      41649.812      52567.504      52459.434      60963.916      1.0422592    
    626000   773.52511      807.83416      41444.631      51831.951      52540.701      60158.199      1.0562185    
    627000   797.87987      116.49851      41573.554      52287.923      52390.309      60261.792      1.0544028    
    628000   810.12352     -526.83151      41749.107      52627.891      52162.846      60526.735      1.0497874    
    629000   787.57455      1331.3261      41602.484      52178.467      53361.225      60916.601      1.0430688    
    630000   788.36646      1081.6499      41527.674      52114.292      53099.678      62466.013      1.0171964    
[...]
     75000   743.09242     -2735.3675      48354.735      59672.879    
     76000   743.69114     -1283.227       49762.954      58745.855    
     77000   739.17064      154.95461      50748.188      58911.61     
     78000   746.52252      1082.5387      51481.47       57440.862    
     79000   734.44102      261.73245      50706.136      59638.228    
     80000   755.43649     -378.44965      50632.263      60193.36     
     81000   731.80402      520.84835      50883.991      58007.502    
     82000   750.73649      916.39123      51782.711      59489.256    
     83000   739.11752     -200.39104      50437.931      58953.854    
     84000   749.41457      731.44575      51516.813      58248.517    
     85000   740.19909     -1600.3671      49280.37       58068.355    
     86000   741.10732      146.79543      51119.545      58030.682    
     87000   729.70412      653.28107      51105.73       57546.458    
     88000   755.03209      502.4185       51234.328      55960.824    
     89000   732.82886     -1034.7058      49640.502      57306.956    
     90000   756.57121     -1629.3491      49577.091      57957.746    
     91000   728.4423      -3331.5347      47646.358      58347.162    
     92000   758.4135       885.79337      51691.879      59136.046    
     93000   742.38524      505.72184      51019.78       58068.889    
     94000   740.32397      1379.2466      51791.212      58686.874    
     95000   744.89564     -373.55802      50486.265      59322.373    
     96000   737.26582      252.26983      50914.23       58213.471    
     97000   750.81008      727.34118      51383.563      58173.574    
     98000   761.65158     -150.74541      50919.069      57573.684    
     99000   753.93274     -71.439545      50532.505      56819.25     
    100000   738.24573     -653.61356      50028.224      57423.718    
    101000   763.35033      502.86833      51096.179      55542.61     
    102000   756.47881      1346.4363      52068.847      56574.782    
    103000   729.90335     -831.00671      49865.32       56830.487    
    104000   741.60508      1283.4664      51825.471      57083.263    
    105000   746.65427     -2637.5307      48537.988      58494.728    
    106000   737.79291     -2552.6083      48345.549      57715.922    
    107000   752.0963      -1072.0937      49803.339      56831.752    
    108000   735.1141       1438.4529      51634.705      55760.686    
    109000   751.78037     -311.44863      50459.175      57575.116    
    110000   734.05657      324.04871      50808.874      57328.844    
    111000   753.03324      1135.3485      51925.087      59076.985    
    112000   750.52398     -312.22292      50594.739      58137.479    
    113000   745.1726      -1143.3719      49712.827      59229.545    
    114000   772.31271     -916.0738       50245.157      57810.332    
    115000   742.18655     -1827.9854      49286.478      58439.162    
    116000   732.38703      588.2772       50925.166      58307.527    
    117000   739.93237      461.11362      51250.427      57492.758    
    118000   740.89604     -621.38062      50107.748      59319.659    
    119000   757.74909     -1165.7378      49900.949      58427.931    
    120000   752.42577     -124.82044      50679.421      57678.787    
    121000   742.14908     -695.55097      50052.756      58569.281    
    122000   744.40777     -940.85725      49687.662      58502.401    
    123000   741.22825      264.318        51066.677      57984.172    
    124000   743.62331     -1183.7749      49748.798      58350.797    
    125000   738.47281      1039.7484      51389.535      57292.596    
    126000   743.49981     -149.00902      50497.427      57760.735    
    127000   746.41078      949.63857      51613.292      57637.491    
    128000   741.93599     -292.23182      50468.535      58335.525    
    129000   743.15283     -614.40951      50313.184      59395.249    
    130000   740.25461      1079.9304      51447.36       58104.146    
    131000   742.1797      -715.88294      50143.349      58043.095    
    132000   728.13885     -655.54148      49752.16       58976.823    
    133000   731.35946     -1355.3265      49405.227      58337.054    
    134000   748.02857      1630.4093      52256.609      59443.402    
    135000   747.28081      1748.1837      52383.224      58477.607    
    136000   753.19443      1422.7509      51967.799      60101.551    
    137000   732.71262     -850.37284      49642.895      59066.618    
    138000   749.83451      741.31831      51335.618      58855.557    
    139000   765.19029     -1.9044132      51085.759      58863.678    
    140000   741.96562     -527.74311      50205.615      58815.181    
    141000   749.33273     -635.03853      50227.719      58355.311    
    142000   732.83067      1548.7149      51955.398      57344.999    
    143000   725.59226      1017.1621      51315.684      57477.387    
    144000   755.8413      -408.33288      50224.238      57357.972    
    145000   744.38171     -2897.9892      48291.012      57517.74     
    146000   753.38318     -1361.14        49724.778      58826.627    
    147000   739.94068      2497.2259      52655.112      57873.212    
    148000   746.64604      303.81814      51004.487      57497.698    
    149000   725.24023     -2137.4376      48496.183      58346.346    
    150000   744.70785     -648.28726      50225.472      58155.407    
Loop time of 48.7707 on 64 procs for 150000 steps with 4506 atoms

Performance: 265.733 ns/day, 0.090 hours/ns, 3075.617 timesteps/s, 13.859 Matom-step/s
100.0% CPU use with 64 MPI tasks x no OpenMP threads

MPI task timing breakdown:
Section |  min time  |  avg time  |  max time  |%varavg| %total
---------------------------------------------------------------
Pair    | 16.367     | 18.679     | 21.221     |  30.2 | 38.30
Bond    | 1.7833     | 1.9815     | 2.1536     |   5.2 |  4.06
Neigh   | 6.7028     | 6.7251     | 6.7508     |   0.6 | 13.79
Comm    | 15.44      | 18.058     | 20.408     |  31.5 | 37.03
Output  | 0.0033211  | 0.0039056  | 0.034386   |   6.1 |  0.01
Modify  | 2.5401     | 2.646      | 2.729      |   2.7 |  5.43
Other   |            | 0.6776     |            |       |  1.39

Nlocal:        70.4062 ave          85 max          55 min
Histogram: 1 7 5 8 8 10 8 8 2 7
Nghost:        2898.36 ave        2945 max        2836 min
Histogram: 1 4 4 3 15 9 8 5 10 5
Neighs:        19379.7 ave       25929 max       14216 min
Histogram: 1 10 8 10 11 9 6 3 5 1

Total # of neighbors = 1240300
Ave neighs/atom = 275.25522
Ave special neighs/atom = 10.462051
Neighbor list builds = 10817
Dangerous builds = 0

variable H equal enthalpy
variable V equal vol
print "${T} ${H} ${V}" append H_T.dat
745 50225.4717170542 58155.4073944048

unfix NPT

variable T equal ${T}+${dT}
variable T equal 745+${dT}
variable T equal 745+5
jump SELF fine_loop
if "${T} > ${T_end}" then "jump SELF end_all"

reset_timestep 0
velocity all create ${T} 78901 dist gaussian mom yes rot yes
velocity all create 750 78901 dist gaussian mom yes rot yes

fix NPT all npt temp ${T} ${T} 100.0 iso 1.0 1.0 1000.0
fix NPT all npt temp 750 ${T} 100.0 iso 1.0 1.0 1000.0
fix NPT all npt temp 750 750 100.0 iso 1.0 1.0 1000.0
run 150000
Generated 21 of 21 mixed pair_coeff terms from geometric mixing rule
Per MPI rank memory allocation (min/avg/max) = 12.41 | 12.42 | 12.43 Mbytes
   Step          Temp          Press         Enthalpy        Volume    
         0   750           -592.42691      50343.915      58155.407    
      1000   744.93752     -715.06793      50029.232      59389.896    
      2000   756.51126      1184.4572      52101.181      58796.33     
      3000   743.22932      206.57214      50992.922      58919.334    
      4000   745.52066     -324.29642      50715.961      58666.719    
      5000   747.65857      1032.982       51741.597      58549.831    
      6000   750.18696     -1185.0889      49820.606      59289.77     
      7000   749.01973      1216.9591      52145.219      59470.014    
      8000   748.59266     -415.33177      50462.695      58954.558    
      9000   765.93079     -1089.6033      50349          58290.825    
     10000   744.25387     -1245.7105      49667.975      57754.274    
     11000   735.37423      773.44854      51275.027      58169.88     
     12000   751.16419     -1431.2613      49745.337      59665.496    
     13000   756.9643      -1591.1787      49329.714      58514.106    
     14000   747.16768     -417.34277      50203.205      58420.559    
     15000   745.27653      243.21842      51063.295      57151.261    
     16000   737.70828     -2075.6104      48881.732      57902.049    
     17000   755.76741      2220.9788      52948.547      57752.626    
     18000   742.26838     -536.40057      50398.769      58211.893    
     19000   746.72054      1450.4013      52007.84       57851.779    
     20000   752.85688     -907.65377      50281.438      57887.102    
     21000   748.24181      1078.6306      51618.795      57903.737    
     22000   750.54373     -640.50454      50316.767      58183.274    
     23000   753.85621     -959.14932      49827.684      58300.322    
     24000   756.82466      1031.0367      51957.465      59099.622    
     25000   743.33855      920.43599      51448.864      57848.86     
     26000   740.73087     -3358.9619      47983.291      58439.308    
     27000   750.34806      1890.9899      52380.273      58180.806    
     28000   761.5418       344.30258      51573.78       59788.281    
     29000   754.45823     -933.99622      50227.951      59876.71     
     30000   746.98416     -311.62353      50527.498      58319.956    
     31000   741.0783      -794.05437      50307.021      59202.408    
     32000   763.33936      504.14804      51319.578      59546.787    
     33000   768.68185      481.74673      51454.023      59215.3      
     34000   755.57645     -77.085835      50967.061      59374.497    
     35000   740.99747     -602.71037      50057.556      59432.124    
     36000   752.47172     -2507.637       48840.346      60386.953    
     37000   745.00798     -1688.3745      49424.626      59181.52     
     38000   743.20023      340.71697      51035.847      58227.639    
     39000   749.11095     -1421.3547      49740.381      59728.269    
     40000   766.58869      483.15007      51489.697      58576.877    
     41000   739.21962     -1291.737       49638.268      59559.741    
     42000   750.55299     -1207.5076      49863.635      58878.336    
     43000   754.20655      499.88632      51172.872      60174.148    
     44000   728.15818      333.63423      50890.429      59059.97     
     45000   740.2749      -2145.4735      48914.54       58944.535    
     46000   764.92793     -727.20814      50515.637      57979.03     
     47000   742.69379     -1156.0174      49797.753      59845.071    
     48000   759.2407       1435.4867      52284.894      58159.445    
     49000   760.52685     -246.0234       50838.403      58856.24     
     50000   729.99546     -2287.3913      48651.634      58706.642    
     51000   744.79106      282.97713      51075.715      58010.783    
     52000   756.63462      161.36564      50903.783      58276.549    
     53000   758.01934      2146.9337      52736.045      58627.85     
     54000   753.55578     -908.19468      49979.081      58178.95     
     55000   757.43291      205.02709      51123.774      58545.157    
     56000   737.36948     -1530.993       49187.584      57984.588    
     57000   742.84467     -1006.8987      49870.149      58511.033    
     58000   769.72774     -34.432349      51298.004      58577.546    
     59000   745.6266      -2261.7984      49036.754      57681.451    
     60000   743.80109     -28.73887       50595.138      57865.415    
     61000   760.94813      426.78511      51261.628      58395.246    
     62000   761.08533     -979.8162       50017.79       57665.841    
     63000   733.68284      196.86362      50696.274      58233.84     
     64000   761.36812     -2525.1976      48858.273      57697.987    
     65000   746.33618     -1978.4265      49020.291      58686.479    
     66000   738.43255      356.89708      50927.555      57894.496    
     67000   766.4444      -227.01322      50760.612      57917.866    
     68000   741.34829     -348.74266      50575.325      59206.646    
     69000   749.08533     -717.91185      50216.662      58286.191    
     70000   749.63377     -1323.8581      49672.26       57965.219    
     71000   754.21077     -690.5576       50325.306      58837.539    
     72000   762.58653      2329.8203      52661.725      57465.767    
     73000   746.53218     -1624.9236      49635.482      58892.79     
     74000   755.01367      1077.3555      52196.549      59778.153    
     75000   754.7226       2518.2534      53032.897      59376.062    
     76000   751.10131     -2365.7916      48876.122      59750.112    
     77000   751.0356       284.4406       51340.875      59481.997    
     78000   733.03188     -757.80609      49972.29       59872.086    
     79000   756.51859     -301.52143      50686.048      60008.325    
     80000   751.87309     -3721.8398      47707.176      60183.506    
     81000   757.43259     -1376.4843      49847.065      59740.714    
     82000   741.11383      1686.2898      52147.619      58880.486    
     83000   752.74329     -564.60605      50439.187      59472.122    
     84000   758.66664      1951.8028      52680.532      58728.021    
     85000   746.89961     -1028.3213      49878.12       59017.426    
     86000   753.64118     -282.6642       50837.198      58332.52     
     87000   755.86981      185.37822      50887.859      58476.681    
     88000   749.46843     -406.53447      50538.571      58239.807    
     89000   739.63387     -1117.379       49686.172      57856.25     
     90000   750.97047     -2320.2914      48968.266      59782.432    
     91000   744.21797     -1398.5274      49656.896      59179.133    
     92000   741.76559     -532.36044      50193.802      58892.051    
     93000   753.69398      558.93227      51543.543      59267.783    
     94000   744.48416      2133.933       52189.039      57258.325    
     95000   748.418       -822.27092      50228.596      58365.323    
     96000   741.0222      -540.40913      50335.678      58679.978    
     97000   742.82633     -804.21553      50131.113      58579.716    
     98000   751.68338     -67.673809      50921.706      57651.249    
     99000   754.30573      1852.6152      52298.7        58583.366    
    100000   761.01114     -495.18162      50690.634      59826.163    
    101000   768.93944     -356.1286       50976.827      59847.145    
    102000   739.34997      600.50702      51296.87       58720.352    
    103000   770.66574      1564.5995      52494.317      58893.697    
    104000   754.38524      1297.7483      51915.908      58620.727    
    105000   745.49884     -579.11972      50305.385      58875.688    
    106000   744.1562      -773.20303      50155.361      59972.776    
    107000   755.60166      1044.347       51972.709      59596.013    
    108000   744.67374      617.7323       51366.267      59173.524    
    109000   750.24529      2389.0125      52973.088      59730.678    
    110000   760.47445     -910.04824      50368.05       60514.766    
    111000   737.20257     -2501.3071      48644.888      60227.669    
    112000   738.85936     -649.54257      50001.407      59204.437    
    113000   747.87032      1978.3728      52638.085      59357.873    
    114000   745.27933     -1953.8972      49255.264      59625.275    
    115000   742.92036     -1512.9336      49368.51       58665.611    
    116000   751.29337     -873.55227      50150.184      58548.51     
    117000   743.82762      270.15875      50999.14       58274.519    
    118000   750.14165     -692.44633      50345.491      58208.568    
    119000   759.83058     -977.82207      50074.372      59000.897    
    120000   753.48969      1638.0891      52194.429      59863.292    
    121000   741.98088     -2560.8272      48571.11       59957.448    
    122000   737.29219     -1217.8165      49683.925      59626.931    
    123000   767.21304     -1950.398       49251.285      58558.347    
    124000   753.39065      1274.5427      51753.315      58609.733    
    125000   755.15307      272.93546      51115.09       59424.207    
    126000   760.59932      954.06473      51680.984      58223.469    
    127000   728.90916     -15.184656      50587.867      58735.601    
    128000   748.61568     -800.95563      50400.186      59615.433    
    129000   768.15904      1842.8513      52792.169      59235.931    
    130000   756.53976      1599.4113      52241.06       59283.337    
    131000   760.21567      2805.6648      53596.97       59488.409    
    132000   748.01413      1814.1569      52396.954      58832.506    
    133000   745.53109     -441.6543       50702.772      59023.111    
    134000   764.74275     -288.18131      50957.445      59038.533    
    135000   745.23202      605.16228      51278.33       57455.204    
    136000   738.68232      515.71143      50808.454      57573.08     
    137000   756.55411     -388.62564      50624.346      57749.838    
    138000   770.64104      357.02557      51276.974      57469.481    
    139000   745.92053     -406.34644      50530.639      58882.652    
    140000   743.29447     -93.705018      50518.814      57615.19     
    141000   756.74557     -742.55426      50392.144      58771.57     
    142000   742.94228      959.21444      51448.257      57452.886    
    143000   754.40373     -2264.6978      49009.597      58481.599    
    144000   744.03013     -265.64146      50353.984      58809.878    
    145000   761.55774     -2185.92        49389.328      59740.76     
    146000   750.04255      1468.9376      52109.068      57943.434    
    147000   767.80795     -253.76007      50924.027      59657.708    
    148000   759.09126      969.23039      51821.186      59160.069    
    149000   750.93768     -366.82041      50505.166      58431.134    
    150000   744.66733     -1076.2275      49977.867      58005.708    
Loop time of 48.5465 on 64 procs for 150000 steps with 4506 atoms

Performance: 266.960 ns/day, 0.090 hours/ns, 3089.820 timesteps/s, 13.923 Matom-step/s
100.0% CPU use with 64 MPI tasks x no OpenMP threads

MPI task timing breakdown:
Section |  min time  |  avg time  |  max time  |%varavg| %total
---------------------------------------------------------------
Pair    | 15.071     | 18.556     | 20.963     |  36.4 | 38.22
Bond    | 1.7555     | 1.9815     | 2.1831     |   6.9 |  4.08
Neigh   | 6.7218     | 6.7441     | 6.7679     |   0.6 | 13.89
Comm    | 15.423     | 17.948     | 21.523     |  38.3 | 36.97
Output  | 0.0033175  | 0.0039152  | 0.034913   |   6.2 |  0.01
Modify  | 2.5067     | 2.637      | 2.7293     |   2.9 |  5.43
Other   |            | 0.6761     |            |       |  1.39

Nlocal:        70.4062 ave          89 max          55 min
Histogram: 2 5 14 6 11 9 7 4 3 3
Nghost:        2895.81 ave        2940 max        2839 min
Histogram: 2 1 1 7 14 14 10 7 3 5
Neighs:        19414.6 ave       28175 max       13612 min
Histogram: 3 5 12 12 16 8 4 2 1 1

Total # of neighbors = 1242534
Ave neighs/atom = 275.751
Ave special neighs/atom = 10.462051
Neighbor list builds = 10887
Dangerous builds = 0

variable H equal enthalpy
variable V equal vol
print "${T} ${H} ${V}" append H_T.dat
750 49977.866943177 58005.7078331027

unfix NPT

variable T equal ${T}+${dT}
variable T equal 750+${dT}
variable T equal 750+5
jump SELF fine_loop
if "${T} > ${T_end}" then "jump SELF end_all"
jump SELF end_all
Total wall time: 1:44:32
